ITEM: TIMESTEP
0
ITEM: NUMBER OF ATOMS
1716
ITEM: BOX BOUNDS pp pp pp
1.0960757537147892e+00 2.2903924246285264e+01
6.5152754084306608e-01 2.3348472459156334e+01
2.0978914833507645e-01 9.9790210851660191e+01
ITEM: ATOMS id type x y z vx vy vz
1 1 10.4834 17.1917 18.9021 0.00395193 -0.00892193 -0.000617393
2 1 11.956 17.173 18.9452 -0.00466715 0.00542149 0.00587257
3 1 12.6558 15.9403 19.0702 -0.00283708 0.00249698 -0.00551489
4 1 14.157 15.9077 19.1853 -0.00222274 0.00234487 0.00023375
5 1 14.8736 17.1541 19.0898 0.00834079 -0.00459194 -0.00336257
6 1 16.3042 17.1315 19.1035 0.000234428 -0.000717128 0.00184328
7 1 17.0022 15.8886 19.4659 0.00710999 0.00498649 0.000351233
8 1 18.4592 15.8814 19.5159 -0.0010524 -0.000907878 -0.00800962
9 1 19.2119 17.1392 19.2784 -0.00941715 0.00218967 -0.00456602
10 1 20.6961 17.1166 19.3149 -0.00944542 -0.00166908 0.011014
11 1 21.4293 15.8873 19.3913 0.00484077 -0.00429358 -0.00166817
12 1 22.8915 15.9038 19.2902 -0.00603412 0.000267753 -0.00293715
13 1 1.7882 17.1701 19.1523 -0.00271501 -0.00435344 0.00806823
14 1 3.22128 17.1818 19.0032 0.00496696 -0.00382764 0.00161389
15 1 3.96233 15.9226 19.015 0.00972882 -0.00242808 0.00570682
16 1 5.41517 15.9202 18.8508 -0.00356888 -0.00203396 -0.00209202
17 1 6.16201 17.1754 18.8536 -0.00167349 0.00293301 0.00295037
18 1 7.58302 17.1802 18.9116 0.00680807 0.0150787 -0.00274885
19 1 8.33935 15.9263 18.9963 -0.00378558 -0.00287453 -0.00222925
20 1 9.75814 15.935 19.0183 -0.00715978 -0.000994624 -0.0057611
21 1 10.5027 14.6733 19.0591 -0.00226118 0.00143879 0.00113893
22 1 11.8965 14.6982 19.2455 0.00614265 0.00370579 0.00562948
23 1 12.6354 13.4179 19.4881 -0.00196347 -0.000293769 0.00164308
24 1 14.1014 13.4428 19.6602 0.000400523 0.0052128 0.00377616
25 1 14.8526 14.6729 19.5312 0.000915571 0.00121123 0.00213854
26 1 16.2957 14.6474 19.5624 0.00332085 0.00110555 0.00704574
27 1 17.0456 13.3794 19.6805 0.00627977 -0.00595271 -0.00514149
28 1 18.4857 13.357 19.6636 0.00545909 0.00360594 0.00271722
29 1 19.2057 14.6182 19.5998 0.00233975 -0.0036612 0.00414456
30 1 20.6663 14.6239 19.3691 0.0023678 -0.00760751 0.00542442
31 1 21.4057 13.3905 19.3774 0.00291771 0.00268811 -0.000720271
32 1 22.8583 13.38 19.1567 -0.00227929 0.00313538 0.00060868
33 1 1.79593 14.6576 19.2719 -0.00520987 -0.00136225 -0.00417099
34 1 3.25199 14.6556 19.1893 -0.0064501 -0.00443233 0.00197151
35 1 4.0074 13.4003 19.0947 0.00319331 0.0020955 -0.00267271
36 1 5.45652 13.4121 18.9437 -0.00202764 0.00871329 -0.00591426
37 1 6.15803 14.6466 18.9186 0.00360931 0.000447344 0.00405998
38 1 7.63506 14.6548 18.9201 0.00105332 0.00433507 0.00348024
39 1 8.36162 13.3991 18.9013 0.00518411 0.00023584 -0.000839127
40 1 9.7862 13.4022 18.9755 0.00201671 0.00263052 0.00136305
41 1 10.4797 12.1543 19.1722 0.00670319 0.00285189 -0.00135081
42 1 11.9085 12.1365 19.5083 -0.000440796 -0.00372397 0.0070642
43 1 12.6401 10.8902 19.6394 -0.00176363 -0.000143207 -0.0032187
44 1 14.095 10.8952 19.9231 -0.00323364 0.00259265 -0.00158316
45 1 14.8532 12.1495 19.8541 0.00250615 -0.000986028 0.00144626
46 1 16.3155 12.1281 19.8563 0.000447152 0.000750015 0.00530196
47 1 17.0078 10.8743 19.927 -0.0023217 -0.000878915 0.00250983
48 1 18.4851 10.8102 19.8101 0.0013434 -0.0045029 0.00819525
49 1 19.2142 12.1019 19.6596 0.00623327 -0.00339791 0.00178627
50 1 20.6891 12.1094 19.5382 -0.0016798 0.00475876 -0.00528318
51 1 21.411 10.869 19.4716 -0.00018913 0.00260491 0.00704949
52 1 22.8901 10.888 19.1867 -0.00524588 -0.00409402 0.00175841
53 1 1.79395 12.1459 19.0863 0.00647316 -0.000792298 -0.000437347
54 1 3.25641 12.1599 19.0753 -0.000429908 0.00106796 -0.00186147
55 1 3.96046 10.8829 18.8899 -0.00341412 0.00339228 -0.00173622
56 1 5.45002 10.8767 18.6705 0.00246096 0.00446417 -0.000466365
57 1 6.16276 12.1441 18.8182 -0.0074102 0.00206537 -0.00342788
58 1 7.6091 12.1119 18.8936 0.0056222 0.00483879 0.00399021
59 1 8.32691 10.8387 18.9663 0.00450534 0.00739794 -0.00363324
60 1 9.77039 10.8914 19.1482 0.000551238 0.00204102 0.00717949
61 1 10.4998 9.62876 19.1042 -0.00598973 0.00267317 -0.0026479
62 1 11.9707 9.6112 19.3725 -0.00355663 0.00212545 0.00307473
63 1 12.6559 8.35081 19.531 -0.00756182 -0.000234069 0.000539126
64 1 14.1098 8.33771 19.8261 -0.00624326 0.00288431 0.00205601
65 1 14.8449 9.62606 19.991 -0.00137214 0.0121294 0.00651358
66 1 16.2873 9.61421 19.9952 0.00255001 -0.00508163 0.00123368
67 1 17.023 8.35012 19.9687 -0.00378617 0.00401003 0.000824737
68 1 18.5218 8.33459 19.9131 -0.00699901 -0.000169 -0.00435721
69 1 19.2366 9.57989 19.8299 -0.00507063 0.00128618 0.000871482
70 1 20.6771 9.63275 19.4974 0.00173065 -0.00108647 -9.70335e-05
71 1 21.3995 8.36952 19.3856 0.00142254 -0.00151762 0.000935159
72 1 22.8438 8.37661 19.2686 0.00527535 0.00486677 0.00543157
73 1 1.77719 9.62096 19.1313 -0.0024862 -0.00519199 0.0026413
74 1 3.23145 9.61433 18.9 -0.000668513 0.00302362 0.00415599
75 1 3.98259 8.37031 18.8646 -0.00161926 -0.00105934 -0.00166123
76 1 5.42814 8.35399 18.7422 -0.0100155 -0.0025408 -0.000747457
77 1 6.17179 9.61868 18.579 0.00437418 -0.00355503 -0.014484
78 1 7.61269 9.59673 18.6812 0.00145988 -0.00829318 0.00585228
79 1 8.35539 8.35916 18.71 0.000868086 -0.00293977 0.00606455
80 1 9.77822 8.36086 19.0002 0.0026149 0.00073227 -0.000359653
81 1 10.4887 7.09193 19.1239 0.000617216 0.00651973 0.00283284
82 1 11.9096 7.09266 19.3524 0.00227034 0.00467656 0.000401759
83 1 12.6488 5.79524 19.4867 -0.000880663 0.00127645 8.35113e-05
84 1 14.1223 5.7561 19.7556 0.00259574 -0.00682382 -0.00419962
85 1 14.8499 7.05419 19.8126 5.50616e-06 0.00545765 -0.00188289
86 1 16.2754 7.03527 19.8627 0.000357796 -0.00216034 -0.00700639
87 1 16.9982 5.80368 19.7191 0.00550285 -0.00317405 0.00653564
88 1 18.4891 5.82799 19.5496 0.00985873 0.000947375 0.00394224
89 1 19.225 7.07714 19.6571 -0.00343631 0.00215291 0.0046637
90 1 20.6928 7.09327 19.4588 0.00220989 -0.00371009 -0.00429094
91 1 21.4067 5.84632 19.2224 -0.00470568 0.00765186 1.02229e-05
92 1 22.8536 5.80719 19.1152 -0.00825999 0.00643926 0.00673467
93 1 1.77262 7.09352 19.1231 -0.00573501 -0.00105376 -0.00254321
94 1 3.25338 7.08989 18.9209 0.00470167 0.00783472 0.00652227
95 1 3.97385 5.85913 18.8472 -0.00746649 -0.00233327 -0.0028704
96 1 5.41614 5.83053 18.675 0.00236269 0.00952829 -0.00902962
97 1 6.15237 7.05545 18.6458 0.0078891 0.00448647 0.00306403
98 1 7.63828 7.05987 18.7068 -0.00761136 0.000670141 0.0175443
99 1 8.37455 5.78053 18.763 -0.00306585 0.00165141 0.000317908
100 1 9.78989 5.79365 18.97 -0.000459241 -0.0085529 -0.000283436
101 1 10.5078 4.50425 19.1216 -0.00303061 0.00353788 -0.00197642
102 1 11.9414 4.51628 19.3244 0.00238664 0.0020199 -0.00199197
103 1 12.618 3.24794 19.5549 0.000924308 0.000880146 0.0041964
104 1 14.1195 3.24571 19.6767 -0.00238191 -0.00695641 0.0016215
105 1 14.8517 4.50476 19.7752 -0.00013042 -0.00681071 -0.000222965
106 1 16.304 4.50669 19.7801 -0.00679233 0.00176255 0.00132632
107 1 17.0477 3.27309 19.5754 -0.00156155 -0.00206753 0.00705491
108 1 18.4883 3.26933 19.3934 0.00745968 0.00398997 -0.00646657
109 1 19.2122 4.55549 19.3886 -0.00148049 0.000146222 0.00255805
110 1 20.6784 4.59344 19.258 -0.0014321 -0.0018036 -0.00506029
111 1 21.4051 3.31193 19.2203 0.00450411 0.00689322 -0.000808564
112 1 22.8779 3.33164 19.188 0.00387459 0.00215455 0.00125097
113 1 1.79987 4.57444 19.131 -0.000146309 0.00246563 -0.00244106
114 1 3.24528 4.56264 18.9508 0.00299888 -0.00452375 0.00209973
115 1 3.94923 3.31223 18.7885 -0.00998208 0.00122634 -0.0072903
116 1 5.40811 3.29163 18.7061 0.00504027 3.25518e-06 0.00240353
117 1 6.11394 4.55462 18.6356 0.0022181 0.00600883 -0.0046504
118 1 7.63801 4.52372 18.6877 -0.00061734 0.00225285 0.00837057
119 1 8.32011 3.30143 18.9329 0.0037984 -0.00336113 0.00563693
120 1 9.78783 3.28681 19.1755 -0.000480142 0.00170537 0.00168579
121 1 10.4892 2.01179 19.1956 0.00418008 -0.00694919 0.00168979
122 1 11.9042 1.98685 19.313 0.0037276 -0.00373373 -0.00156018
123 1 12.6468 0.781777 19.1434 -0.00106129 0.00227732 -0.000616879
124 1 14.1136 0.779664 19.2825 -0.00284835 0.00254249 0.00334445
125 1 14.8611 2.01726 19.534 0.0103739 0.0106102 -0.00738821
126 1 16.308 2.03932 19.5001 0.00485103 0.00532982 -0.00215659
127 1 17.0441 0.74204 19.3025 0.00556027 -0.00244891 -0.00252953
128 1 18.5092 0.733499 19.295 0.00165063 -0.000120486 -0.00605423
129 1 19.2151 2.01277 19.2221 -0.00669057 0.000364882 -0.0090128
130 1 20.6948 2.02172 19.1873 -0.00295666 -0.00122694 -0.00107738
131 1 21.4245 0.795368 19.1266 -0.00205758 0.00355826 -0.000646227
132 1 22.8708 0.791736 19.2121 -0.00086761 0.00453257 -0.00125542
133 1 1.78052 2.05043 19.0905 -0.000566125 -0.00429238 0.00215686
134 1 3.20577 2.02675 18.889 0.00212276 0.00264641 -0.00438356
135 1 3.92462 0.780499 19.019 0.00186573 -0.00552961 0.00116363
136 1 5.35313 0.77622 18.9501 -0.00711082 0.00230208 -0.0103856
137 1 6.10564 2.06077 18.8379 -0.00624494 0.00187648 -1.01349e-05
138 1 7.58206 2.05113 18.9022 -0.00422035 -0.000537897 -0.00491039
139 1 8.30173 0.779579 19.023 -0.00102328 0.00411858 0.000661442
140 1 9.76258 0.791614 19.045 0.00362257 0.0111349 0.00349445
141 1 10.483 22.2251 19.0027 -0.00399607 0.00041841 -0.00807942
142 1 11.92 22.2332 18.9803 0.0019497 0.00120679 -0.00665561
143 1 12.6332 20.9622 19.025 0.00424078 0.00610086 -0.00316231
144 1 14.1267 20.9676 19.0802 0.0033187 0.000846203 -0.000803951
145 1 14.8418 22.2239 19.182 -0.0063031 -0.00263321 0.00606674
146 1 16.3165 22.2086 19.1448 -0.00437009 -0.00496569 0.010872
147 1 17.0519 20.9464 18.9463 -0.000122809 -0.00251967 7.26082e-05
148 1 18.5005 20.9483 18.9252 0.00442238 -0.000145571 -0.00782875
149 1 19.2117 22.2044 19.0374 0.00226836 -0.00859778 -0.00427758
150 1 20.7036 22.2162 19.0606 0.00164159 0.00264942 -0.00226683
151 1 21.4388 20.9838 19.0052 -0.00325239 0.00701272 0.000918686
152 1 22.8551 20.9694 19.1919 -0.00103181 -0.000177695 -0.00340954
153 1 1.76866 22.2299 19.2897 -0.00384024 -0.00279602 0.000304305
154 1 3.23329 22.2297 19.1853 0.00367129 0.00941924 0.0029935
155 1 3.97064 20.9457 19.202 -0.000627769 0.00663223 0.00103721
156 1 5.4214 20.9166 19.0835 -0.00968326 -0.00306378 0.00323519
157 1 6.13666 22.2119 19.0149 -0.00462128 -0.00379772 -0.00290027
158 1 7.57055 22.2387 19.0847 0.00012656 -0.00479633 -0.00351113
159 1 8.30792 20.979 18.9997 0.00082013 -0.00114322 0.00409613
160 1 9.74884 20.9806 18.8978 -0.000348024 0.000172966 -0.000351668
161 1 10.4649 19.7256 18.9001 -0.00131585 -0.00424763 -0.00255694
162 1 11.9447 19.7167 18.9022 -0.00381133 0.00202633 -0.0045356
163 1 12.6664 18.423 18.9359 0.00512651 -0.00907447 -0.00241718
164 1 14.1321 18.4226 18.947 0.00273963 0.000122052 -0.00191239
165 1 14.8563 19.6886 18.9582 -0.00238116 -0.00405494 0.00823527
166 1 16.3315 19.6716 18.8392 0.00682082 0.00664168 -0.00794482
167 1 17.0743 18.3766 18.8876 -0.00662965 0.00342395 -0.00579692
168 1 18.4739 18.4142 19.094 -0.00149902 -0.0030073 -0.00562549
169 1 19.2245 19.7065 19.0295 0.00552033 -0.0021785 0.000307928
170 1 20.6998 19.7079 19.0688 0.00192982 -0.00305964 -0.00715858
171 1 21.4225 18.4015 19.2721 -5.35293e-05 0.00123564 0.00184183
172 1 22.852 18.4311 19.3299 0.00499747 0.00640564 -0.00048771
173 1 1.80237 19.6897 19.2153 -0.000370545 -0.00101747 -0.00323633
174 1 3.25139 19.7048 19.1953 0.000149809 0.00192047 -0.0017875
175 1 3.98373 18.4233 19.1324 -0.000901716 0.00150797 -0.000598653
176 1 5.42923 18.455 19.0333 -0.00056667 0.00202169 0.000507986
177 1 6.15417 19.6995 18.9591 -0.00135896 0.00427346 -0.00159698
178 1 7.59085 19.7267 18.9788 -0.000826671 0.00569269 0.00348116
179 1 8.29375 18.483 18.955 -0.00728605 -0.0142398 -0.0043875
180 1 9.75372 18.4686 18.9024 0.00533741 -0.00610694 0.00291114
181 2 5.64202 22.0059 36.0587 -0.00496831 -0.000464214 -0.00397682
182 3 4.92106 22.6265 35.8427 0.00915405 0.00327608 0.00218797
183 3 5.59543 21.2894 35.408 0.0035054 -0.0166585 0.00634293
184 2 7.31948 11.2742 41.5908 0.00393676 0.00371949 0.0052187
185 3 6.89134 11.3717 40.7281 0.0088874 0.0160675 0.010961
186 3 7.61115 10.4082 41.6266 -0.00153407 -0.00183968 0.00988935
187 2 7.52103 10.0187 31.5493 0.0013725 -0.00202176 0.00147645
188 3 6.56465 9.91952 31.647 -0.0247279 -0.015476 0.00314889
189 3 7.72458 9.90249 30.6169 0.0146899 -0.00262961 -0.00403986
190 2 18.8405 5.69007 31.3522 -0.00383606 0.00157807 0.00144684
191 3 18.7423 5.59016 32.2952 -0.00738723 0.0111262 0.000548532
192 3 19.5171 4.99848 31.1834 0.025733 -0.0437272 0.0143141
193 2 10.8574 1.92022 39.3511 0.00114237 -0.00300708 0.00163536
194 3 9.99066 2.32008 39.2483 -0.0310025 -0.0147213 -0.00637002
195 3 10.876 1.03322 39.6825 -0.0183041 -0.0275282 -0.00612274
196 2 8.72837 1.97951 26.9603 0.0042351 -0.00629096 -0.000149502
197 3 7.81886 1.5913 26.9104 0.0139569 0.0110204 0.00170046
198 3 9.10839 1.84617 27.794 -0.0286047 0.0117992 0.0162945
199 2 11.0293 22.5926 43.3828 -0.000162271 -0.00389469 -0.00584836
200 3 11.0763 21.8331 43.9698 0.0182838 -0.0083503 -0.0189347
201 3 11.1265 22.1763 42.544 -0.0229485 0.00257142 0.0103483
202 2 16.6924 12.3335 48.0057 -0.00185188 0.000323977 0.000577723
203 3 17.0649 11.4872 48.1387 0.0179735 -0.0222729 -0.0261364
204 3 16.6518 12.6396 48.8943 0.00631734 -0.0127691 -0.0186125
205 2 10.3861 1.97584 24.6309 0.00975254 -0.00426682 -0.00275985
206 3 9.75773 2.37229 25.2635 -0.010376 -0.00571291 -0.017405
207 3 10.4539 2.66802 23.9362 0.0181515 -0.00123174 0.0390317
208 2 11.7054 19.8867 42.2428 0.00696086 -0.00235795 0.00191679
209 3 12.4556 19.4927 42.7689 -0.0239438 0.0155314 0.00308173
210 3 10.9304 19.3033 42.314 -0.00624327 -0.0097918 -0.0348484
211 2 13.5162 23.0825 31.5195 0.00228828 -0.000603179 -0.00832999
212 3 13.8547 22.7306 30.7293 -0.0192371 0.0557191 0.00525581
213 3 12.5117 22.96 31.3849 0.0124658 -0.021977 0.00122659
214 2 12.4932 10.2463 40.7645 0.000743431 -0.00248584 -0.00141224
215 3 11.6112 10.5902 40.9871 1.19624e-05 -0.0175614 -0.00893019
216 3 13.0014 10.9214 41.2926 0.00670233 -0.00430249 0.0108767
217 2 9.30745 13.4543 39.267 0.0026871 0.00172516 0.00456747
218 3 9.41536 14.0704 38.6024 0.00513016 0.00249989 -0.00829437
219 3 8.34541 13.5772 39.492 0.00238496 0.00215629 0.00224289
220 2 17.9587 6.47574 40.5513 0.00468485 0.00287178 0.0025438
221 3 17.337 5.96478 39.9817 0.00748748 -0.00490914 0.0192574
222 3 17.9734 6.01225 41.4077 0.00219016 -0.0131552 0.0146206
223 2 15.8091 1.18335 42.9145 0.00108168 -0.00348986 0.00116841
224 3 15.5553 2.01503 42.436 0.0159429 0.000455659 0.0190941
225 3 15.2992 1.21029 43.7334 0.00806498 0.0156828 0.0081728
226 2 15.9574 3.39619 25.7097 0.0035996 0.00442739 -0.00717125
227 3 14.9664 3.49195 25.5315 -0.0110639 0.0230003 -0.0211686
228 3 16.457 3.48496 24.8731 -0.00742566 -0.00739358 -0.0382934
229 2 21.7207 20.3423 36.9678 -0.00598978 0.00069536 -0.00477151
230 3 21.7695 20.9807 36.2758 0.00615318 0.00491912 -0.000788664
231 3 22.5897 20.2183 37.2377 0.00509552 0.008325 -0.0238377
232 2 9.57621 6.05368 36.3381 0.00201518 0.00266191 0.00389421
233 3 9.88623 5.73026 37.1874 -0.0227886 0.0298412 -0.0233716
234 3 9.11481 6.85194 36.6003 0.0176405 -0.0123542 0.00779084
235 2 22.4036 9.56043 51.1356 -0.00369294 -0.00209251 -0.000331365
236 3 21.735 9.09691 51.7166 -0.0104056 -0.000452101 -0.0108885
237 3 22.8013 10.3101 51.6215 0.0119466 0.0203337 0.0257976
238 2 8.83164 3.74629 39.6614 0.011762 0.00182785 -0.00357965
239 3 7.93319 3.69548 39.2789 0.00795035 -0.0168233 -0.017008
240 3 8.65668 3.58043 40.5899 -0.000965579 0.020831 0.00380124
241 2 10.7352 7.37602 52.611 -2.58719e-05 0.00143957 -0.00327716
242 3 10.7069 6.43606 52.4023 0.0143331 0.00993419 0.0046975
243 3 11.604 7.62135 52.3104 0.0188685 -0.0126699 0.0234873
244 2 8.19186 8.29567 36.2868 -0.00425335 -0.00211965 -0.00588508
245 3 8.57677 9.14462 36.4694 -0.0298282 0.00433856 0.00714134
246 3 7.24684 8.48587 36.2976 0.0134676 0.00504704 0.0142838
247 2 21.8694 21.099 28.4737 -0.00146907 0.00200007 -0.00239465
248 3 21.5171 20.2203 28.1665 0.00148213 -0.0121551 -0.017037
249 3 22.7843 21.1273 28.1083 0.0107919 0.01691 -0.0215429
250 2 15.4255 17.1089 47.8539 0.00526713 0.00384294 0.000578497
251 3 15.8952 17.362 48.673 -0.000374569 -0.0463583 -0.0177453
252 3 16.0245 17.0134 47.0572 -0.002298 -0.00421003 0.0207625
253 2 12.0894 5.53684 35.0349 -0.0106022 0.00255672 -0.00133944
254 3 11.3429 5.94841 35.5355 0.0131564 -0.0470508 -0.0117272
255 3 11.981 4.55862 35.1749 -0.0168718 -0.0105991 0.0274885
256 2 21.8102 9.80013 27.011 -0.00348496 0.00405529 0.00294888
257 3 21.5853 10.3733 26.2821 -0.0265266 -0.00157482 0.0207322
258 3 22.7775 9.64445 26.9673 -0.0240905 -0.00706241 0.00528374
259 2 12.9242 12.2885 34.0634 -0.00229545 0.00232631 -0.00338943
260 3 13.1426 11.4819 34.5881 -0.0105974 -0.0360858 -0.00168992
261 3 13.6078 12.8943 34.3543 0.00265986 0.0134364 0.025618
262 2 21.6423 11.667 46.6206 0.00391229 0.00017803 -0.000429166
263 3 22.486 11.8814 47.0727 -0.00755984 0.0195312 -0.00177759
264 3 21.2357 12.4924 46.4162 0.00111415 -0.0109865 -0.0204147
265 2 5.105 6.46635 36.3864 0.00253137 0.00396872 -0.00595988
266 3 5.25827 5.86839 35.6059 0.00178521 -0.0024634 0.0234959
267 3 5.20256 7.33836 35.962 -0.001437 -0.0150635 -0.0203818
268 2 5.12003 21.554 45.9891 0.00764251 -0.00358889 0.00740888
269 3 4.95519 22.4837 45.738 0.0166875 0.0108866 0.00312373
270 3 5.17449 21.5699 46.9657 -0.0056379 -3.58343e-05 0.00737729
271 2 15.0614 10.0519 37.7201 -0.00259759 0.00088245 0.000505462
272 3 14.43 10.8447 37.8175 -0.00214954 -0.0180608 -0.00463152
273 3 15.8525 10.3656 38.1934 0.0141984 0.0161874 0.0278948
274 2 1.68276 2.27604 28.9026 0.00283105 0.00662606 -0.00478993
275 3 1.47442 1.96591 29.7978 0.00232649 0.0125217 0.0137659
276 3 1.19004 1.73591 28.3122 0.0032075 0.00376963 -0.0173778
277 2 9.02534 9.98158 52.0253 -0.00171088 0.00497668 0.0009172
278 3 8.25198 9.5218 51.4804 0.0143523 -0.00857157 -0.00317538
279 3 9.61364 9.27916 52.391 -0.00238389 0.0112261 0.0021496
280 2 20.9209 22.549 53.5691 -0.00135514 0.0026165 0.00370527
281 3 19.9095 22.6131 53.7124 -0.00107501 -0.0041469 -0.0183274
282 3 21.3024 23.0954 54.2547 0.0220564 0.00752982 0.000191999
283 2 14.0933 20.7502 36.6647 -0.00661543 -0.00128687 0.00662594
284 3 14.1715 21.6599 36.3886 0.00605442 -0.0118841 0.00644096
285 3 13.0779 20.4962 36.8779 -0.0115226 -0.0180805 0.0220919
286 2 19.6217 12.9343 51.4034 -0.0027035 0.0045488 -0.00259889
287 3 19.8946 12.2994 50.7097 -0.00647998 0.0108144 0.00352448
288 3 20.4621 13.2153 51.7674 -0.0261095 0.0108416 -0.0207943
289 2 20.9377 11.9081 25.2948 0.00250724 0.00411301 -0.00626162
290 3 21.1278 11.8535 24.3643 -0.004535 -0.0147532 -0.00328219
291 3 20.0064 12.1453 25.3323 -0.0430379 -0.0297308 0.0274818
292 2 12.2203 17.8912 22.1577 0.00068297 0.00110615 -0.000716147
293 3 11.5282 17.2759 21.9388 0.00927128 -0.00383605 0.0245817
294 3 12.8563 17.1983 22.2903 0.0104176 -0.0406542 -0.00334217
295 2 19.8721 15.3411 24.9379 -0.00370087 0.00193296 0.00486595
296 3 19.4397 14.7368 25.5725 0.016565 0.00385322 0.0152748
297 3 19.9394 14.6669 24.1965 0.00957502 -0.0311232 -0.0222319
298 2 2.22714 8.88942 28.3445 -0.00160992 -0.000631425 0.00122078
299 3 3.05875 8.49783 28.0204 0.00127976 -0.0161982 0.00828797
300 3 1.72185 8.11013 28.6863 -0.00933434 0.0384401 0.018582
301 2 10.9303 23.1984 31.7189 -0.00294956 0.000605606 -0.00383252
302 3 10.4324 22.55 32.2937 0.00069569 -0.00276869 0.0181151
303 3 10.8192 1.29821 32.1546 0.0226742 0.0231992 -0.00915118
304 2 21.6906 17.9684 24.4107 -0.00260215 0.00388671 -0.000302454
305 3 20.7818 17.8891 24.7643 0.0120664 0.0123374 -0.0105485
306 3 22.2154 18.2107 25.1705 -0.00504611 -0.00723269 -0.0258718
307 2 8.85612 15.2907 35.1075 0.00165764 -0.00206513 -0.00750696
308 3 9.63689 14.9048 35.4608 0.00282559 0.00471022 -0.0262095
309 3 8.43776 15.7296 35.8398 -0.0130079 0.0279876 -0.00701
310 2 9.37011 18.089 43.2586 -0.00247794 0.000868912 0.00140676
311 3 9.08498 17.177 43.102 0.00414209 -0.025682 0.0072777
312 3 8.64723 18.588 42.9125 -0.00867939 -0.0203618 0.030932
313 2 8.81759 18.2972 45.949 -0.00435417 -0.000850074 -0.00481532
314 3 7.91555 18.0255 46.0865 0.0153004 0.00740125 0.015894
315 3 8.94958 18.2055 45.0419 0.0025659 0.00409535 -0.0287148
316 2 7.14997 11.7321 48.2431 0.00273579 -0.00343789 -0.00138522
317 3 7.62345 12.5144 48.5197 0.0115628 -0.0252901 0.0171364
318 3 6.93598 11.7875 47.2554 0.00474011 -0.0055442 0.0181929
319 2 19.9613 6.7904 22.6817 -0.00429909 -0.000120607 -0.00333147
320 3 19.2756 6.25535 23.1069 -0.00245076 -0.0164559 -0.000402318
321 3 20.6246 6.2973 22.2131 0.0266307 -0.00393641 0.00347251
322 2 17.218 7.48495 36.2618 -0.00147609 0.000785107 0.00280619
323 3 16.3275 7.93368 36.0582 -0.0298665 -0.00595344 0.0169036
324 3 17.9228 8.07777 36.5594 0.00629039 0.0411821 -0.0118321
325 2 6.73652 17.2715 35.9401 0.00209856 -0.000261508 0.00273251
326 3 6.05168 16.6263 35.6539 -0.0124806 -0.00606563 -0.0423354
327 3 7.19716 17.3996 35.1551 -0.00275682 -0.00771288 0.0142841
328 2 12.9693 17.3096 46.4249 -0.000503934 0.00600817 0.000480249
329 3 12.445 17.9871 46.8659 0.00650476 -2.50416e-05 0.0305629
330 3 13.7177 17.2417 46.9837 0.0122495 0.00103921 0.0249651
331 2 12.5656 8.64925 43.2293 0.0016129 0.00110048 -0.00510325
332 3 11.6352 8.36991 43.2579 0.00277532 0.00445501 -0.0374979
333 3 12.5761 9.12124 42.3651 0.00291059 0.0142113 -0.00256516
334 2 2.60648 19.0596 31.9799 0.000364257 -0.00334303 -0.00458021
335 3 2.23359 18.2078 31.6619 0.00269533 0.0192968 -0.015864
336 3 3.46965 19.1595 31.4671 -0.00345781 0.000266798 -0.0275338
337 2 3.50213 6.74264 26.2284 -0.000833886 -0.000882388 0.00381162
338 3 3.69145 6.84835 25.3244 -0.0147301 0.00822396 0.00766708
339 3 3.13441 5.82174 26.2539 -0.0248466 -0.0248483 -0.00595894
340 2 15.5213 17.6886 42.0326 -0.00451509 0.00358912 -0.00111491
341 3 14.7523 17.7806 42.5627 -0.00738541 0.00291008 0.0237914
342 3 15.9283 18.5424 41.9027 -0.00230983 -0.0043934 0.0250784
343 2 18.9864 11.2887 41.8781 0.00211721 0.00680491 0.00411756
344 3 19.8964 11.0939 41.613 -0.0264209 -0.00830353 -0.0113156
345 3 18.8324 11.9425 41.181 -0.0273704 0.00253357 -0.00389787
346 2 2.06514 5.03468 28.9427 0.00105328 -0.00144308 0.00254182
347 3 2.49882 5.21176 29.7987 -0.0389168 -0.016191 -0.000490632
348 3 1.81464 4.08165 29.0796 -0.000650898 -0.0110542 -0.0230763
349 2 7.56016 22.7387 29.3615 -0.00049092 0.00405861 -0.00272339
350 3 7.48825 22.1904 28.5662 -0.00513614 -0.0218134 0.0242982
351 3 7.0195 0.802133 29.3172 0.0128756 -0.0324792 -0.00665984
352 2 6.13724 23.3256 26.6863 -0.00268134 -0.00327577 0.00123564
353 3 5.84838 22.4297 26.3279 -0.0212039 0.0141843 0.0028629
354 3 5.49176 0.934618 27.3044 0.0121154 0.00711126 0.00358167
355 2 21.678 14.9875 51.6821 -0.00186435 -0.001377 -0.00128125
356 3 21.8602 15.4956 52.4606 -0.0205288 0.0274117 -0.0060755
357 3 21.9915 15.4917 50.9145 0.00815746 -0.000824733 0.00745392
358 2 13.493 6.51474 44.2698 -0.00362874 0.00110078 -0.000949345
359 3 13.032 7.03796 43.649 0.0402241 -0.00990287 -0.0191375
360 3 13.4024 5.63965 43.9189 0.00264027 0.000900747 -0.000591623
361 2 16.883 3.03406 45.4857 -0.00275801 -0.000379794 0.00261649
362 3 17.4878 3.51179 46.1264 0.0127085 0.0221676 0.0363847
363 3 16.5102 3.67361 44.9296 0.0254368 -0.00824973 0.0106675
364 2 17.4878 7.75041 27.2919 -0.0022659 -0.000894583 0.00470123
365 3 16.7641 8.16429 26.8368 0.0138801 0.0130531 -0.00856844
366 3 17.6986 8.20282 28.1332 0.00194815 0.000858374 0.0149151
367 2 5.9378 18.6066 26.1935 -0.0049915 0.000209472 -0.00441494
368 3 5.19564 18.5653 26.7788 0.0307369 -0.0214999 0.0078652
369 3 6.18864 17.7175 25.9671 -0.0171907 0.0287081 0.0224793
370 2 22.5526 9.89683 43.2909 0.00634366 0.00112463 0.0105566
371 3 21.631 9.94317 43.5869 -0.0133188 0.0194013 0.00555268
372 3 22.6231 9.60336 42.3604 -0.011116 0.00816945 0.0173637
373 2 2.74427 16.0117 38.7057 -0.00523645 -0.00274078 -0.00298897
374 3 2.00209 15.581 38.2565 0.00934588 0.0378181 -0.0209514
375 3 2.93393 16.8345 38.2391 -0.0177433 0.0235974 0.0121975
376 2 7.2789 13.0937 34.9865 -0.00533118 -0.00384134 0.00223433
377 3 7.47442 12.7841 34.1049 -0.0045937 0.00337203 0.00280329
378 3 7.66667 13.9706 35.095 -0.0259148 0.0156311 -0.00568942
379 2 4.49892 17.7225 28.3921 -0.00518643 -0.00139067 0.00816713
380 3 4.49129 18.4842 28.9885 0.00272577 -0.0016816 -0.00145715
381 3 3.75153 17.1618 28.5656 0.00840526 0.0153051 -0.0195186
382 2 7.57969 20.8779 46.1912 -3.66187e-05 0.00787465 -0.00220922
383 3 7.90093 20.0953 45.8486 -0.0117288 -0.0401798 -0.00561248
384 3 6.60936 20.9163 45.9551 -0.00712173 0.0142645 0.00891433
385 2 18.6854 17.258 43.9497 0.00140053 0.000555334 -0.00104533
386 3 19.3044 17.4806 44.6205 0.000286126 0.00710446 0.00719619
387 3 18.9773 16.4159 43.5429 0.00873123 0.0307309 0.00472853
388 2 22.8639 8.32492 23.1971 0.00679743 0.00456362 0.00197325
389 3 1.18893 9.04224 23.7587 0.0126901 0.00497249 0.0165102
390 3 22.7731 7.48813 23.6557 -0.0215343 -0.00976768 -0.00237625
391 2 2.09805 22.3399 44.6059 -0.00227784 -0.000819623 0.00279992
392 3 2.83759 21.9819 44.1162 0.0102636 -0.000298408 0.00236961
393 3 1.95813 23.2779 44.3172 -0.00328963 0.0322386 0.0158087
394 2 2.83545 20.8895 38.5892 -0.00710237 0.00137157 0.00222584
395 3 2.34908 21.3163 39.2435 0.0302345 0.0124478 0.00658075
396 3 3.70991 21.1166 38.9303 0.0315487 0.014911 0.0159743
397 2 2.32846 6.99439 37.2611 -0.000869986 0.00649216 -0.00191358
398 3 1.89079 6.22705 37.6629 -0.02135 -0.00331383 0.00866344
399 3 3.13281 6.65903 36.7489 -0.000937124 -0.0219938 0.00855007
400 2 3.4001 2.84746 47.4584 -0.00331527 0.000975226 0.00699367
401 3 3.49775 2.39418 48.3251 -0.00726564 -0.0235747 -0.0148104
402 3 4.16439 2.5959 46.9865 -0.00515758 -0.0261742 0.00125099
403 2 9.84469 9.3258 47.9939 0.000366644 -0.00160039 0.00480567
404 3 9.68536 10.0475 48.5728 -0.00738494 0.00506724 -0.0029315
405 3 9.72599 8.52342 48.5574 -0.00431998 -0.00914702 0.0147223
406 2 17.8878 14.008 46.3641 -0.00555688 -0.000430849 0.010437
407 3 18.8997 14.1285 46.3789 0.00157834 -0.0109079 -0.00551009
408 3 17.6774 13.4434 47.1149 0.0144316 0.0265386 0.00286632
409 2 3.35184 12.6648 30.8903 0.00285107 -0.00619015 0.0037665
410 3 2.77875 13.0293 31.5553 0.017439 0.025772 -0.0371197
411 3 2.75618 12.1692 30.3175 -0.0235718 -0.00778481 -0.0120979
412 2 8.95861 16.6246 37.7942 0.000271192 0.00104751 -0.00317029
413 3 9.63184 16.3247 38.4496 -0.0209834 0.000114952 0.0196999
414 3 8.07849 16.4475 38.129 -0.028189 0.0195791 3.81026e-05
415 2 7.27338 9.36196 49.8511 -0.00262068 0.00252346 0.00258947
416 3 6.32275 9.15932 49.6178 0.000594637 0.00916336 -0.0138294
417 3 7.55189 9.93427 49.1438 -0.00345911 0.0223014 -0.00693454
418 2 3.76621 21.6189 42.2228 0.001074 -0.0113794 0.00610358
419 3 3.36489 22.3444 41.7824 -0.0244141 -0.014161 6.65307e-05
420 3 3.39051 20.7588 41.9356 0.02192 0.0207932 -0.000954221
421 2 17.5676 9.11421 41.4279 -0.0021236 -0.00650153 -0.00209595
422 3 17.7586 8.17474 41.2479 0.0112026 -0.0264801 0.0125606
423 3 18.316 9.64529 41.6853 0.0116968 -0.0164504 -0.0101515
424 2 19.8522 8.69119 33.5449 -0.00527967 -0.00402917 0.00480283
425 3 19.477 9.58914 33.5182 -0.0184993 -0.0205515 -0.00887003
426 3 20.4294 8.77638 34.3088 -0.0155089 0.00828674 0.0158182
427 2 22.2538 8.42811 47.595 -0.00596159 0.00222087 -0.0113851
428 3 22.651 8.35421 46.7027 0.0277762 -0.00711732 0.0409606
429 3 21.3009 8.07442 47.505 -0.0118386 0.0018905 -0.0324046
430 2 2.91232 15.5097 29.3156 0.00679297 0.00574553 -0.00164807
431 3 2.27956 15.0711 28.7526 0.0127008 0.0155053 -0.00220393
432 3 3.6656 14.9356 29.2004 0.00926236 0.00840055 -0.0101955
433 2 16.7095 8.94183 31.298 0.00270801 0.00157867 -0.00120827
434 3 17.5032 8.55278 30.8042 0.00474031 -0.0147378 0.0222634
435 3 16.1476 8.17223 31.4496 0.0175434 -0.0161306 -5.78565e-05
436 2 19.9337 7.48947 43.1221 0.00266432 -0.00348521 0.00033191
437 3 19.9193 6.53977 43.0899 0.00176777 0.00304994 0.0154326
438 3 20.8458 7.76327 43.129 0.00798781 0.00315743 -0.0132928
439 2 1.49858 13.2915 26.675 0.0045664 -0.0026099 -0.00228425
440 3 1.69248 13.0273 25.7753 -0.000259724 0.000888263 0.000338826
441 3 22.3874 13.0305 26.743 -0.0232042 0.0117383 0.031574
442 2 15.6989 18.1457 26.2336 -0.00159579 0.00738627 0.00229201
443 3 15.5326 17.6461 25.3962 -0.0184561 0.0223168 0.0120788
444 3 16.1353 17.5963 26.8996 0.00149101 0.0213261 -0.00386152
445 2 2.13849 12.1718 44.2993 0.00255869 -0.0054323 0.00373136
446 3 1.69449 11.5825 43.7309 0.0226445 0.00254919 -0.0232553
447 3 1.73941 12.1295 45.1089 0.0154865 0.00456485 0.0252512
448 2 9.32484 5.46729 24.4091 0.00392482 -0.00138068 0.00242949
449 3 10.1212 5.87917 24.678 -0.00202101 0.0156766 -0.00460795
450 3 8.94259 5.12518 25.2083 0.0175198 -0.0174445 -0.00206956
451 2 9.17621 7.28149 49.8798 0.00262286 0.0029182 0.00212351
452 3 9.66883 7.58128 50.6144 0.0117354 -0.013956 0.0151627
453 3 8.44536 7.90177 49.7885 0.0165398 -0.00679572 -0.00650278
454 2 15.2366 20.8709 45.0937 0.0065878 -0.0012709 0.00615783
455 3 16.0991 20.8927 44.5844 -0.00269783 0.0123087 0.00639087
456 3 14.8582 21.7496 44.9752 0.0188484 -0.0227603 -0.00184874
457 2 16.7821 5.8792 47.6484 0.00306478 0.00365696 0.00227947
458 3 16.519 6.34716 48.4541 0.0276842 -0.00112715 0.0132409
459 3 17.1025 6.51499 46.9598 0.00978871 -0.0173898 -0.00670171
460 2 21.9534 18.6114 43.33 -0.00182883 -0.0109938 -0.00392906
461 3 21.9718 19.3523 43.973 -0.0376549 -0.0195695 -0.0153416
462 3 22.8034 18.4272 42.896 0.0201582 0.0309896 0.00546835
463 2 14.4394 22.0861 40.7907 -0.00159837 -0.00182161 0.00573504
464 3 15.027 22.6729 41.2887 -0.0391008 -0.000688771 -0.0057204
465 3 15.0393 21.455 40.3153 -0.0314516 -0.02521 -0.0226843
466 2 6.84312 3.67701 48.3535 -0.00374985 0.00246191 -0.00120837
467 3 6.24119 3.02465 48.6948 0.000756849 0.010055 -0.0089361
468 3 7.31847 3.35609 47.606 -0.00994981 -0.000864261 -0.00560086
469 2 2.15555 16.6326 41.3283 0.00228715 -0.00272719 -0.00332223
470 3 2.49196 16.4145 40.4479 0.0151298 -0.00402572 0.00871274