LAMMPS Description

1716  atoms
1295  bonds
512  angles
1098  dihedrals
558  impropers

906  atom types
379  bond types
1017  angle types
800  dihedral types
5  improper types

0.0 24.0 xlo xhi
0.0 24.0 ylo yhi
0.0 100.0 zlo zhi

Masses

1 18.998  # 1_b1_a1_d1_i1
2 14.027  # 2_b2_a2_d2_i2
3 12.011  # 3_b3_a3_d3_i3
4 15.999  # 4_b4_a4_d4_i4
5 15.999  # 5_b5_a5_d5_i5
6 15.035  # 6_b6_a6_d6_i6
7 1.008  # 7_b7_a7_d7_i7
8 16.043  # 8_b8_a8_d8_i8
9 15.035  # 9_b6_a6_d6_i6
10 15.035  # 10_b6_a6_d6_i6
11 15.035  # 11_b6_a6_d6_i6
12 15.035  # 12_b6_a6_d6_i6
13 14.027  # 13_b2_a2_d2_i2
14 14.027  # 14_b9_a9_d9_i9
15 13.019  # 15_b10_a10_d10_i10
16 13.019  # 16_b11_a11_d11_i11
17 13.019  # 17_b12_a12_d12_i12
18 12.011  # 18_b13_a13_d13_i13
19 12.011  # 19_b14_a14_d14_i14
20 15.999  # 20_b5_a5_d5_i5
21 1.008  # 21_b7_a7_d7_i7
22 15.035  # 22_b6_a6_d6_i6
23 14.027  # 23_b2_a2_d2_i2
24 32.06  # 24_b15_a15_d15_i15
25 32.06  # 25_b15_a15_d15_i15
26 32.06  # 26_b16_a16_d16_i16
27 32.06  # 27_b16_a16_d16_i16
28 1.008  # 28_b17_a17_d17_i17
29 1.008  # 29_b17_a17_d17_i17
30 15.035  # 30_b6_a6_d6_i6
31 14.027  # 31_b2_a2_d2_i2
32 15.035  # 32_b6_a6_d6_i6
33 14.027  # 33_b2_a2_d2_i2
34 15.035  # 34_b6_a6_d6_i6
35 14.027  # 35_b2_a2_d2_i2
36 14.007  # 36_b18_a18_d18_i18
37 12.011  # 37_b19_a19_d19_i19
38 15.035  # 38_b6_a6_d6_i6
39 13.019  # 39_b10_a10_d10_i10
40 12.011  # 40_b13_a13_d13_i13
41 15.999  # 41_b20_a20_d20_i20
42 15.035  # 42_b6_a6_d6_i6
43 14.027  # 43_b2_a2_d2_i2
44 14.027  # 44_b2_a2_d2_i2
45 35.453  # 45_b21_a21_d21_i21
46 12.011  # 46_b10_a10_d10_i10
47 35.453  # 47_b21_a21_d21_i21
48 12.011  # 48_b13_a13_d13_i13
49 35.453  # 49_b21_a21_d21_i21
50 32.06  # 50_b22_a22_d22_i22
51 15.999  # 51_b23_a23_d23_i23
52 15.035  # 52_b6_a6_d6_i6
53 15.999  # 53_b4_a4_d4_i4
54 14.007  # 54_b24_a24_d24_i24
55 12.011  # 55_b3_a3_d3_i3
56 15.035  # 56_b6_a6_d6_i6
57 1.0  # 57_b25_a25_d25_i25
58 4.003  # 58_b26_a26_d26_i26
59 20.179  # 59_b27_a27_d27_i27
60 39.948  # 60_b28_a28_d28_i28
61 83.8  # 61_b29_a29_d29_i29
62 131.3  # 62_b30_a30_d30_i30
63 15.999  # 63_b31_a31_d31_i31
64 1.008  # 64_b32_a32_d32_i32
65 15.999  # 65_b31_a31_d31_i31
66 1.008  # 66_b32_a32_d32_i32
67 1e-30  # 67_b33_a33_d33_i33
68 15.999  # 68_b34_a34_d34_i34
69 1.008  # 69_b35_a35_d35_i35
70 15.999  # 70_b36_a36_d36_i36
71 1.008  # 71_b37_a37_d37_i37
72 1e-30  # 72_b38_a38_d38_i38
73 15.999  # 73_b39_a39_d39_i39
74 1.008  # 74_b40_a40_d40_i40
75 1e-30  # 75_b41_a41_d41_i41
76 15.999  # 76_b42_a42_d42_i42
77 1.008  # 77_b43_a43_d43_i43
78 14.007  # 78_b44_a44_d44_i44
79 1.008  # 79_b45_a45_d45_i45
80 12.011  # 80_b13_a13_d13_i13
81 12.011  # 81_b13_a13_d13_i13
82 12.011  # 82_b13_a13_d13_i13
83 12.011  # 83_b13_a13_d13_i13
84 12.011  # 84_b13_a13_d13_i13
85 1.008  # 85_b46_a46_d46_i46
86 12.011  # 86_b47_a47_d47_i47
87 12.011  # 87_b47_a47_d47_i47
88 12.011  # 88_b47_a47_d47_i47
89 1.008  # 89_b46_a46_d46_i46
90 12.011  # 90_b48_a48_d48_i48
91 1.008  # 91_b49_a49_d49_i49
92 12.011  # 92_b48_a48_d48_i48
93 12.011  # 93_b13_a13_d13_i13
94 12.011  # 94_b13_a13_d13_i13
95 12.011  # 95_b50_a50_d50_i50
96 15.999  # 96_b5_a5_d5_i5
97 1.008  # 97_b7_a7_d7_i7
98 1.008  # 98_b46_a46_d46_i46
99 12.011  # 99_b13_a13_d13_i13
100 12.011  # 100_b13_a13_d13_i13
101 12.011  # 101_b13_a13_d13_i13
102 12.011  # 102_b13_a13_d13_i13
103 12.011  # 103_b13_a13_d13_i13
104 15.999  # 104_b5_a5_d5_i5
105 1.008  # 105_b7_a7_d7_i7
106 18.998  # 106_b1_a1_d1_i1
107 1.008  # 107_b46_a46_d46_i46
108 12.011  # 108_b48_a48_d48_i48
109 15.999  # 109_b5_a5_d5_i5
110 1.008  # 110_b7_a7_d7_i7
111 15.999  # 111_b5_a5_d5_i5
112 1.008  # 112_b7_a7_d7_i7
113 15.999  # 113_b5_a5_d5_i5
114 1.008  # 114_b7_a7_d7_i7
115 12.011  # 115_b13_a13_d13_i13
116 12.011  # 116_b13_a13_d13_i13
117 12.011  # 117_b13_a13_d13_i13
118 1.008  # 118_b46_a46_d46_i46
119 15.999  # 119_b20_a20_d20_i20
120 12.011  # 120_b50_a50_d50_i50
121 15.999  # 121_b20_a20_d20_i20
122 15.999  # 122_b20_a20_d20_i20
123 12.011  # 123_b13_a13_d13_i13
124 12.011  # 124_b13_a13_d13_i13
125 12.011  # 125_b13_a13_d13_i13
126 12.011  # 126_b13_a13_d13_i13
127 1.008  # 127_b46_a46_d46_i46
128 15.999  # 128_b20_a20_d20_i20
129 15.999  # 129_b5_a5_d5_i5
130 1.008  # 130_b7_a7_d7_i7
131 12.011  # 131_b51_a51_d51_i51
132 1.008  # 132_b46_a46_d46_i46
133 12.011  # 133_b51_a51_d51_i51
134 1.008  # 134_b46_a46_d46_i46
135 12.011  # 135_b51_a51_d51_i51
136 1.008  # 136_b46_a46_d46_i46
137 12.011  # 137_b51_a51_d51_i51
138 1.008  # 138_b46_a46_d46_i46
139 12.011  # 139_b51_a51_d51_i51
140 12.011  # 140_b51_a51_d51_i51
141 12.011  # 141_b48_a48_d48_i48
142 32.06  # 142_b15_a15_d15_i15
143 32.06  # 143_b15_a15_d15_i15
144 32.06  # 144_b16_a16_d16_i16
145 32.06  # 145_b16_a16_d16_i16
146 1.008  # 146_b17_a17_d17_i17
147 1.008  # 147_b17_a17_d17_i17
148 12.011  # 148_b13_a13_d13_i13
149 12.011  # 149_b13_a13_d13_i13
150 12.011  # 150_b13_a13_d13_i13
151 12.011  # 151_b13_a13_d13_i13
152 12.011  # 152_b13_a13_d13_i13
153 12.011  # 153_b13_a13_d13_i13
154 12.011  # 154_b13_a13_d13_i13
155 12.011  # 155_b13_a13_d13_i13
156 12.011  # 156_b13_a13_d13_i13
157 12.011  # 157_b13_a13_d13_i13
158 12.011  # 158_b13_a13_d13_i13
159 12.011  # 159_b13_a13_d13_i13
160 12.011  # 160_b13_a13_d13_i13
161 12.011  # 161_b13_a13_d13_i13
162 12.011  # 162_b13_a13_d13_i13
163 12.011  # 163_b48_a48_d48_i48
164 32.06  # 164_b16_a16_d16_i16
165 12.011  # 165_b13_a13_d13_i13
166 12.011  # 166_b13_a13_d13_i13
167 12.011  # 167_b13_a13_d13_i13
168 35.453  # 168_b21_a21_d21_i21
169 12.011  # 169_b47_a47_d47_i47
170 12.011  # 170_b48_a48_d48_i48
171 12.011  # 171_b13_a13_d13_i13
172 12.011  # 172_b13_a13_d13_i13
173 12.011  # 173_b3_a3_d3_i3
174 12.011  # 174_b3_a3_d3_i3
175 12.011  # 175_b3_a3_d3_i3
176 12.011  # 176_b3_a3_d3_i3
177 12.011  # 177_b3_a3_d3_i3
178 15.999  # 178_b4_a4_d4_i4
179 14.007  # 179_b24_a24_d24_i24
180 14.007  # 180_b24_a24_d24_i24
181 14.007  # 181_b24_a24_d24_i24
182 1.008  # 182_b45_a45_d45_i45
183 1.008  # 183_b45_a45_d45_i45
184 12.011  # 184_b13_a13_d13_i13
185 12.011  # 185_b13_a13_d13_i13
186 12.011  # 186_b13_a13_d13_i13
187 12.011  # 187_b13_a13_d13_i13
188 12.011  # 188_b13_a13_d13_i13
189 12.011  # 189_b3_a3_d3_i3
190 15.999  # 190_b4_a4_d4_i4
191 14.007  # 191_b24_a24_d24_i24
192 1.008  # 192_b45_a45_d45_i45
193 14.007  # 193_b24_a24_d24_i24
194 12.011  # 194_b3_a3_d3_i3
195 15.999  # 195_b4_a4_d4_i4
196 1.008  # 196_b45_a45_d45_i45
197 1.008  # 197_b46_a46_d46_i46
198 12.011  # 198_b13_a13_d13_i13
199 12.011  # 199_b13_a13_d13_i13
200 12.011  # 200_b13_a13_d13_i13
201 12.011  # 201_b13_a13_d13_i13
202 12.011  # 202_b48_a48_d48_i48
203 12.011  # 203_b19_a19_d19_i19
204 14.007  # 204_b18_a18_d18_i18
205 12.011  # 205_b48_a48_d48_i48
206 35.453  # 206_b21_a21_d21_i21
207 14.007  # 207_b24_a24_d24_i24
208 12.011  # 208_b48_a48_d48_i48
209 12.011  # 209_b3_a3_d3_i3
210 15.999  # 210_b4_a4_d4_i4
211 15.999  # 211_b5_a5_d5_i5
212 1.008  # 212_b7_a7_d7_i7
213 12.011  # 213_b3_a3_d3_i3
214 15.999  # 214_b52_a52_d52_i52
215 12.011  # 215_b13_a13_d13_i13
216 12.011  # 216_b13_a13_d13_i13
217 12.011  # 217_b13_a13_d13_i13
218 12.011  # 218_b13_a13_d13_i13
219 12.011  # 219_b3_a3_d3_i3
220 15.999  # 220_b4_a4_d4_i4
221 1.008  # 221_b46_a46_d46_i46
222 12.011  # 222_b3_a3_d3_i3
223 15.999  # 223_b4_a4_d4_i4
224 1.008  # 224_b46_a46_d46_i46
225 12.011  # 225_b13_a13_d13_i13
226 12.011  # 226_b13_a13_d13_i13
227 12.011  # 227_b13_a13_d13_i13
228 12.011  # 228_b13_a13_d13_i13
229 14.007  # 229_b53_a53_d53_i53
230 14.007  # 230_b53_a53_d53_i53
231 14.007  # 231_b53_a53_d53_i53
232 1.008  # 232_b54_a54_d54_i54
233 1.008  # 233_b54_a54_d54_i54
234 12.011  # 234_b13_a13_d13_i13
235 12.011  # 235_b13_a13_d13_i13
236 12.011  # 236_b13_a13_d13_i13
237 12.011  # 237_b13_a13_d13_i13
238 12.011  # 238_b13_a13_d13_i13
239 12.011  # 239_b13_a13_d13_i13
240 12.011  # 240_b13_a13_d13_i13
241 12.011  # 241_b13_a13_d13_i13
242 12.011  # 242_b13_a13_d13_i13
243 14.007  # 243_b55_a55_d55_i55
244 1.008  # 244_b54_a54_d54_i54
245 12.011  # 245_b48_a48_d48_i48
246 14.007  # 246_b55_a55_d55_i55
247 1.008  # 247_b54_a54_d54_i54
248 12.011  # 248_b13_a13_d13_i13
249 12.011  # 249_b13_a13_d13_i13
250 12.011  # 250_b13_a13_d13_i13
251 12.011  # 251_b13_a13_d13_i13
252 14.007  # 252_b53_a53_d53_i53
253 1.008  # 253_b54_a54_d54_i54
254 14.007  # 254_b56_a56_d56_i56
255 12.011  # 255_b48_a48_d48_i48
256 14.007  # 256_b55_a55_d55_i55
257 1.008  # 257_b45_a45_d45_i45
258 12.011  # 258_b48_a48_d48_i48
259 1.008  # 259_b49_a49_d49_i49
260 12.011  # 260_b48_a48_d48_i48
261 1.008  # 261_b49_a49_d49_i49
262 14.007  # 262_b57_a57_d57_i57
263 12.011  # 263_b3_a3_d3_i3
264 14.007  # 264_b57_a57_d57_i57
265 12.011  # 265_b3_a3_d3_i3
266 12.011  # 266_b47_a47_d47_i47
267 12.011  # 267_b47_a47_d47_i47
268 1.008  # 268_b45_a45_d45_i45
269 15.999  # 269_b4_a4_d4_i4
270 1.008  # 270_b45_a45_d45_i45
271 15.999  # 271_b4_a4_d4_i4
272 1.008  # 272_b46_a46_d46_i46
273 1.008  # 273_b46_a46_d46_i46
274 12.011  # 274_b13_a13_d13_i13
275 1.008  # 275_b46_a46_d46_i46
276 14.007  # 276_b57_a57_d57_i57
277 12.011  # 277_b3_a3_d3_i3
278 14.007  # 278_b56_a56_d56_i56
279 12.011  # 279_b48_a48_d48_i48
280 12.011  # 280_b47_a47_d47_i47
281 12.011  # 281_b47_a47_d47_i47
282 1.008  # 282_b45_a45_d45_i45
283 15.999  # 283_b4_a4_d4_i4
284 14.007  # 284_b55_a55_d55_i55
285 1.008  # 285_b45_a45_d45_i45
286 1.008  # 286_b45_a45_d45_i45
287 1.008  # 287_b46_a46_d46_i46
288 1.008  # 288_b58_a58_d58_i58
289 14.007  # 289_b56_a56_d56_i56
290 12.011  # 290_b59_a59_d59_i59
291 14.007  # 291_b56_a56_d56_i56
292 12.011  # 292_b60_a60_d60_i60
293 12.011  # 293_b60_a60_d60_i60
294 12.011  # 294_b48_a48_d48_i48
295 14.007  # 295_b61_a61_d61_i61
296 12.011  # 296_b62_a62_d62_i62
297 14.007  # 297_b57_a57_d57_i57
298 1.008  # 298_b63_a63_d63_i63
299 14.007  # 299_b55_a55_d55_i55
300 1.008  # 300_b45_a45_d45_i45
301 1.008  # 301_b45_a45_d45_i45
302 1.008  # 302_b63_a63_d63_i63
303 1.008  # 303_b45_a45_d45_i45
304 14.007  # 304_b57_a57_d57_i57
305 12.011  # 305_b48_a48_d48_i48
306 14.007  # 306_b56_a56_d56_i56
307 12.011  # 307_b60_a60_d60_i60
308 12.011  # 308_b60_a60_d60_i60
309 12.011  # 309_b3_a3_d3_i3
310 1.008  # 310_b45_a45_d45_i45
311 14.007  # 311_b55_a55_d55_i55
312 1.008  # 312_b45_a45_d45_i45
313 15.999  # 313_b4_a4_d4_i4
314 12.011  # 314_b13_a13_d13_i13
315 1.008  # 315_b46_a46_d46_i46
316 12.011  # 316_b13_a13_d13_i13
317 1.008  # 317_b46_a46_d46_i46
318 12.011  # 318_b13_a13_d13_i13
319 1.008  # 319_b46_a46_d46_i46
320 14.007  # 320_b57_a57_d57_i57
321 12.011  # 321_b3_a3_d3_i3
322 14.007  # 322_b57_a57_d57_i57
323 12.011  # 323_b48_a48_d48_i48
324 12.011  # 324_b47_a47_d47_i47
325 12.011  # 325_b47_a47_d47_i47
326 1.008  # 326_b45_a45_d45_i45
327 15.999  # 327_b4_a4_d4_i4
328 1.008  # 328_b45_a45_d45_i45
329 14.007  # 329_b55_a55_d55_i55
330 1.008  # 330_b45_a45_d45_i45
331 1.008  # 331_b45_a45_d45_i45
332 1.008  # 332_b49_a49_d49_i49
333 1.008  # 333_b58_a58_d58_i58
334 12.011  # 334_b13_a13_d13_i13
335 1.008  # 335_b46_a46_d46_i46
336 30.974  # 336_b64_a64_d64_i64
337 15.999  # 337_b52_a52_d52_i52
338 15.999  # 338_b20_a20_d20_i20
339 15.035  # 339_b13_a13_d13_i13
340 12.011  # 340_b47_a47_d47_i47
341 35.453  # 341_b21_a21_d21_i21
342 12.011  # 342_b47_a47_d47_i47
343 18.998  # 343_b1_a1_d1_i1
344 35.453  # 344_b21_a21_d21_i21
345 79.904  # 345_b65_a65_d65_i65
346 126.905  # 346_b66_a66_d66_i66
347 18.039  # 347_b67_a67_d67_i67
348 6.941  # 348_b68_a68_d68_i68
349 22.99  # 349_b69_a69_d69_i69
350 39.098  # 350_b70_a70_d70_i70
351 85.468  # 351_b71_a71_d71_i71
352 132.905  # 352_b72_a72_d72_i72
353 24.305  # 353_b73_a73_d73_i73
354 40.08  # 354_b74_a74_d74_i74
355 87.62  # 355_b75_a75_d75_i75
356 137.33  # 356_b76_a76_d76_i76
357 12.011  # 357_b6_a6_d6_i6
358 1.008  # 358_b46_a46_d46_i46
359 32.06  # 359_b15_a15_d15_i15
360 12.011  # 360_b6_a6_d6_i6
361 1.008  # 361_b46_a46_d46_i46
362 15.999  # 362_b5_a5_d5_i5
363 12.011  # 363_b13_a13_d13_i13
364 1.008  # 364_b46_a46_d46_i46
365 12.011  # 365_b19_a19_d19_i19
366 14.007  # 366_b18_a18_d18_i18
367 12.011  # 367_b6_a6_d6_i6
368 1.008  # 368_b46_a46_d46_i46
369 14.007  # 369_b53_a53_d53_i53
370 1.008  # 370_b45_a45_d45_i45
371 12.011  # 371_b6_a6_d6_i6
372 1.008  # 372_b46_a46_d46_i46
373 12.011  # 373_b13_a13_d13_i13
374 1.008  # 374_b46_a46_d46_i46
375 1e-30  # 375_b33_a33_d33_i33
376 15.999  # 376_b5_a5_d5_i5
377 1.008  # 377_b7_a7_d7_i7
378 238.029  # 378_b77_a77_d77_i77
379 15.999  # 379_b78_a78_d78_i78
380 15.999  # 380_b20_a20_d20_i20
381 30.974  # 381_b64_a64_d64_i64
382 15.999  # 382_b52_a52_d52_i52
383 15.999  # 383_b20_a20_d20_i20
384 12.011  # 384_b13_a13_d13_i13
385 1.008  # 385_b46_a46_d46_i46
386 30.974  # 386_b64_a64_d64_i64
387 15.999  # 387_b52_a52_d52_i52
388 15.999  # 388_b20_a20_d20_i20
389 12.011  # 389_b13_a13_d13_i13
390 1.008  # 390_b46_a46_d46_i46
391 30.974  # 391_b64_a64_d64_i64
392 15.999  # 392_b52_a52_d52_i52
393 15.999  # 393_b20_a20_d20_i20
394 12.011  # 394_b13_a13_d13_i13
395 1.008  # 395_b46_a46_d46_i46
396 12.011  # 396_b13_a13_d13_i13
397 1.008  # 397_b46_a46_d46_i46
398 12.011  # 398_b48_a48_d48_i48
399 12.011  # 399_b13_a13_d13_i13
400 1.008  # 400_b46_a46_d46_i46
401 12.011  # 401_b48_a48_d48_i48
402 12.011  # 402_b13_a13_d13_i13
403 1.008  # 403_b46_a46_d46_i46
404 12.011  # 404_b48_a48_d48_i48
405 12.011  # 405_b13_a13_d13_i13
406 12.011  # 406_b3_a3_d3_i3
407 15.999  # 407_b4_a4_d4_i4
408 15.999  # 408_b20_a20_d20_i20
409 12.011  # 409_b13_a13_d13_i13
410 1.008  # 410_b46_a46_d46_i46
411 12.011  # 411_b3_a3_d3_i3
412 12.011  # 412_b3_a3_d3_i3
413 12.011  # 413_b48_a48_d48_i48
414 15.999  # 414_b20_a20_d20_i20
415 32.06  # 415_b79_a79_d79_i79
416 15.999  # 416_b23_a23_d23_i23
417 12.011  # 417_b13_a13_d13_i13
418 1.008  # 418_b46_a46_d46_i46
419 14.007  # 419_b24_a24_d24_i24
420 1.008  # 420_b45_a45_d45_i45
421 14.007  # 421_b24_a24_d24_i24
422 1.008  # 422_b45_a45_d45_i45
423 12.011  # 423_b13_a13_d13_i13
424 1.008  # 424_b46_a46_d46_i46
425 12.011  # 425_b13_a13_d13_i13
426 1.008  # 426_b46_a46_d46_i46
427 12.011  # 427_b13_a13_d13_i13
428 1.008  # 428_b46_a46_d46_i46
429 12.011  # 429_b48_a48_d48_i48
430 12.011  # 430_b48_a48_d48_i48
431 12.011  # 431_b13_a13_d13_i13
432 12.011  # 432_b13_a13_d13_i13
433 12.011  # 433_b13_a13_d13_i13
434 32.06  # 434_b79_a79_d79_i79
435 15.999  # 435_b23_a23_d23_i23
436 32.06  # 436_b22_a22_d22_i22
437 32.06  # 437_b22_a22_d22_i22
438 15.999  # 438_b23_a23_d23_i23
439 12.011  # 439_b13_a13_d13_i13
440 12.011  # 440_b13_a13_d13_i13
441 12.011  # 441_b80_a80_d80_i80
442 12.011  # 442_b60_a60_d60_i60
443 12.011  # 443_b81_a81_d81_i81
444 14.007  # 444_b57_a57_d57_i57
445 1.008  # 445_b45_a45_d45_i45
446 12.011  # 446_b13_a13_d13_i13
447 12.011  # 447_b82_a82_d82_i82
448 12.011  # 448_b83_a83_d83_i83
449 12.011  # 449_b84_a84_d84_i84
450 12.011  # 450_b82_a82_d82_i82
451 12.011  # 451_b85_a85_d85_i85
452 14.007  # 452_b61_a61_d61_i61
453 14.007  # 453_b57_a57_d57_i57
454 1.008  # 454_b45_a45_d45_i45
455 12.011  # 455_b84_a84_d84_i84
456 12.011  # 456_b13_a13_d13_i13
457 12.011  # 457_b13_a13_d13_i13
458 12.011  # 458_b47_a47_d47_i47
459 12.011  # 459_b47_a47_d47_i47
460 12.011  # 460_b86_a86_d86_i86
461 14.007  # 461_b56_a56_d56_i56
462 12.011  # 462_b48_a48_d48_i48
463 12.011  # 463_b48_a48_d48_i48
464 12.011  # 464_b48_a48_d48_i48
465 1.008  # 465_b49_a49_d49_i49
466 1.008  # 466_b49_a49_d49_i49
467 1.008  # 467_b49_a49_d49_i49
468 14.007  # 468_b56_a56_d56_i56
469 12.011  # 469_b48_a48_d48_i48
470 1.008  # 470_b49_a49_d49_i49
471 14.007  # 471_b56_a56_d56_i56
472 12.011  # 472_b59_a59_d59_i59
473 12.011  # 473_b48_a48_d48_i48
474 12.011  # 474_b48_a48_d48_i48
475 1.008  # 475_b49_a49_d49_i49
476 1.008  # 476_b49_a49_d49_i49
477 1.008  # 477_b49_a49_d49_i49
478 14.007  # 478_b56_a56_d56_i56
479 12.011  # 479_b48_a48_d48_i48
480 12.011  # 480_b48_a48_d48_i48
481 1.008  # 481_b49_a49_d49_i49
482 1.008  # 482_b49_a49_d49_i49
483 14.007  # 483_b57_a57_d57_i57
484 12.011  # 484_b84_a84_d84_i84
485 12.011  # 485_b87_a87_d87_i87
486 1.008  # 486_b45_a45_d45_i45
487 1.008  # 487_b49_a49_d49_i49
488 1.008  # 488_b49_a49_d49_i49
489 14.007  # 489_b57_a57_d57_i57
490 14.007  # 490_b61_a61_d61_i61
491 12.011  # 491_b88_a88_d88_i88
492 12.011  # 492_b87_a87_d87_i87
493 12.011  # 493_b84_a84_d84_i84
494 1.008  # 494_b45_a45_d45_i45
495 1.008  # 495_b49_a49_d49_i49
496 1.008  # 496_b49_a49_d49_i49
497 1.008  # 497_b49_a49_d49_i49
498 14.007  # 498_b57_a57_d57_i57
499 12.011  # 499_b82_a82_d82_i82
500 14.007  # 500_b61_a61_d61_i61
501 12.011  # 501_b83_a83_d83_i83
502 12.011  # 502_b84_a84_d84_i84
503 1.008  # 503_b45_a45_d45_i45
504 1.008  # 504_b49_a49_d49_i49
505 1.008  # 505_b49_a49_d49_i49
506 1.008  # 506_b49_a49_d49_i49
507 15.999  # 507_b20_a20_d20_i20
508 12.011  # 508_b84_a84_d84_i84
509 12.011  # 509_b87_a87_d87_i87
510 1.008  # 510_b49_a49_d49_i49
511 1.008  # 511_b49_a49_d49_i49
512 15.999  # 512_b20_a20_d20_i20
513 12.011  # 513_b82_a82_d82_i82
514 14.007  # 514_b61_a61_d61_i61
515 12.011  # 515_b83_a83_d83_i83
516 12.011  # 516_b84_a84_d84_i84
517 1.008  # 517_b49_a49_d49_i49
518 1.008  # 518_b49_a49_d49_i49
519 1.008  # 519_b49_a49_d49_i49
520 15.999  # 520_b20_a20_d20_i20
521 14.007  # 521_b61_a61_d61_i61
522 12.011  # 522_b88_a88_d88_i88
523 12.011  # 523_b87_a87_d87_i87
524 12.011  # 524_b84_a84_d84_i84
525 1.008  # 525_b49_a49_d49_i49
526 1.008  # 526_b49_a49_d49_i49
527 1.008  # 527_b49_a49_d49_i49
528 14.007  # 528_b57_a57_d57_i57
529 12.011  # 529_b84_a84_d84_i84
530 12.011  # 530_b87_a87_d87_i87
531 12.011  # 531_b48_a48_d48_i48
532 12.011  # 532_b48_a48_d48_i48
533 12.011  # 533_b48_a48_d48_i48
534 12.011  # 534_b48_a48_d48_i48
535 12.011  # 535_b81_a81_d81_i81
536 12.011  # 536_b60_a60_d60_i60
537 1.008  # 537_b45_a45_d45_i45
538 1.008  # 538_b49_a49_d49_i49
539 1.008  # 539_b49_a49_d49_i49
540 1.008  # 540_b49_a49_d49_i49
541 1.008  # 541_b49_a49_d49_i49
542 1.008  # 542_b49_a49_d49_i49
543 1.008  # 543_b49_a49_d49_i49
544 14.007  # 544_b56_a56_d56_i56
545 12.011  # 545_b48_a48_d48_i48
546 12.011  # 546_b48_a48_d48_i48
547 12.011  # 547_b48_a48_d48_i48
548 12.011  # 548_b48_a48_d48_i48
549 12.011  # 549_b48_a48_d48_i48
550 12.011  # 550_b48_a48_d48_i48
551 12.011  # 551_b48_a48_d48_i48
552 12.011  # 552_b48_a48_d48_i48
553 12.011  # 553_b48_a48_d48_i48
554 1.008  # 554_b49_a49_d49_i49
555 1.008  # 555_b49_a49_d49_i49
556 1.008  # 556_b49_a49_d49_i49
557 1.008  # 557_b49_a49_d49_i49
558 1.008  # 558_b49_a49_d49_i49
559 1.008  # 559_b49_a49_d49_i49
560 1.008  # 560_b49_a49_d49_i49
561 14.007  # 561_b56_a56_d56_i56
562 12.011  # 562_b59_a59_d59_i59
563 14.007  # 563_b56_a56_d56_i56
564 12.011  # 564_b60_a60_d60_i60
565 12.011  # 565_b60_a60_d60_i60
566 12.011  # 566_b48_a48_d48_i48
567 14.007  # 567_b61_a61_d61_i61
568 12.011  # 568_b62_a62_d62_i62
569 14.007  # 569_b57_a57_d57_i57
570 1.008  # 570_b49_a49_d49_i49
571 1.008  # 571_b49_a49_d49_i49
572 1.008  # 572_b49_a49_d49_i49
573 1.008  # 573_b45_a45_d45_i45
574 32.06  # 574_b16_a16_d16_i16
575 12.011  # 575_b82_a82_d82_i82
576 14.007  # 576_b61_a61_d61_i61
577 12.011  # 577_b83_a83_d83_i83
578 12.011  # 578_b84_a84_d84_i84
579 1.008  # 579_b49_a49_d49_i49
580 1.008  # 580_b49_a49_d49_i49
581 1.008  # 581_b49_a49_d49_i49
582 14.007  # 582_b56_a56_d56_i56
583 12.011  # 583_b59_a59_d59_i59
584 1.008  # 584_b49_a49_d49_i49
585 12.011  # 585_b48_a48_d48_i48
586 12.011  # 586_b13_a13_d13_i13
587 14.007  # 587_b56_a56_d56_i56
588 12.011  # 588_b48_a48_d48_i48
589 12.011  # 589_b48_a48_d48_i48
590 12.011  # 590_b48_a48_d48_i48
591 12.011  # 591_b48_a48_d48_i48
592 12.011  # 592_b48_a48_d48_i48
593 12.011  # 593_b48_a48_d48_i48
594 1.008  # 594_b49_a49_d49_i49
595 1.008  # 595_b49_a49_d49_i49
596 1.008  # 596_b49_a49_d49_i49
597 1.008  # 597_b49_a49_d49_i49
598 14.007  # 598_b57_a57_d57_i57
599 12.011  # 599_b82_a82_d82_i82
600 14.007  # 600_b61_a61_d61_i61
601 12.011  # 601_b83_a83_d83_i83
602 12.011  # 602_b84_a84_d84_i84
603 12.011  # 603_b13_a13_d13_i13
604 1.008  # 604_b49_a49_d49_i49
605 1.008  # 605_b49_a49_d49_i49
606 1.008  # 606_b49_a49_d49_i49
607 1.008  # 607_b46_a46_d46_i46
608 12.011  # 608_b13_a13_d13_i13
609 12.011  # 609_b13_a13_d13_i13
610 12.011  # 610_b13_a13_d13_i13
611 12.011  # 611_b13_a13_d13_i13
612 12.011  # 612_b13_a13_d13_i13
613 12.011  # 613_b13_a13_d13_i13
614 12.011  # 614_b13_a13_d13_i13
615 12.011  # 615_b13_a13_d13_i13
616 12.011  # 616_b13_a13_d13_i13
617 12.011  # 617_b13_a13_d13_i13
618 12.011  # 618_b13_a13_d13_i13
619 12.011  # 619_b13_a13_d13_i13
620 12.011  # 620_b13_a13_d13_i13
621 12.011  # 621_b13_a13_d13_i13
622 12.011  # 622_b13_a13_d13_i13
623 32.06  # 623_b15_a15_d15_i15
624 1.008  # 624_b17_a17_d17_i17
625 12.011  # 625_b48_a48_d48_i48
626 12.011  # 626_b89_a89_d89_i89
627 14.007  # 627_b90_a90_d90_i90
628 12.011  # 628_b91_a91_d91_i91
629 12.011  # 629_b91_a91_d91_i91
630 12.011  # 630_b13_a13_d13_i13
631 12.011  # 631_b86_a86_d86_i86
632 12.011  # 632_b86_a86_d86_i86
633 12.011  # 633_b86_a86_d86_i86
634 12.011  # 634_b86_a86_d86_i86
635 12.011  # 635_b86_a86_d86_i86
636 12.011  # 636_b86_a86_d86_i86
637 32.06  # 637_b16_a16_d16_i16
638 227.0  # 638_b92_a92_d92_i92
639 232.038  # 639_b93_a93_d93_i93
640 243.0  # 640_b94_a94_d94_i94
641 12.011  # 641_b95_a95_d95_i95
642 12.011  # 642_b13_a13_d13_i13
643 1.008  # 643_b46_a46_d46_i46
644 138.906  # 644_b96_a96_d96_i96
645 144.24  # 645_b97_a97_d97_i97
646 151.96  # 646_b98_a98_d98_i98
647 157.25  # 647_b99_a99_d99_i99
648 173.04  # 648_b100_a100_d100_i100
649 12.011  # 649_b47_a47_d47_i47
650 35.453  # 650_b21_a21_d21_i21
651 1.008  # 651_b46_a46_d46_i46
652 12.011  # 652_b91_a91_d91_i91
653 12.011  # 653_b91_a91_d91_i91
654 12.011  # 654_b91_a91_d91_i91
655 12.011  # 655_b48_a48_d48_i48
656 1.008  # 656_b49_a49_d49_i49
657 12.011  # 657_b48_a48_d48_i48
658 1.008  # 658_b49_a49_d49_i49
659 12.011  # 659_b48_a48_d48_i48
660 18.998  # 660_b1_a1_d1_i1
661 12.011  # 661_b48_a48_d48_i48
662 18.998  # 662_b1_a1_d1_i1
663 79.904  # 663_b65_a65_d65_i65
664 14.027  # 664_b2_a2_d2_i2
665 12.011  # 665_b48_a48_d48_i48
666 12.011  # 666_b13_a13_d13_i13
667 18.998  # 667_b1_a1_d1_i1
668 12.011  # 668_b48_a48_d48_i48
669 18.998  # 669_b1_a1_d1_i1
670 12.011  # 670_b48_a48_d48_i48
671 79.904  # 671_b65_a65_d65_i65
672 12.011  # 672_b48_a48_d48_i48
673 126.905  # 673_b66_a66_d66_i66
674 12.011  # 674_b91_a91_d91_i91
675 32.06  # 675_b15_a15_d15_i15
676 12.011  # 676_b48_a48_d48_i48
677 12.011  # 677_b48_a48_d48_i48
678 12.011  # 678_b48_a48_d48_i48
679 12.011  # 679_b48_a48_d48_i48
680 12.011  # 680_b48_a48_d48_i48
681 1.008  # 681_b49_a49_d49_i49
682 1.008  # 682_b49_a49_d49_i49
683 12.011  # 683_b48_a48_d48_i48
684 14.007  # 684_b55_a55_d55_i55
685 1.008  # 685_b45_a45_d45_i45
686 1.008  # 686_b45_a45_d45_i45
687 1.008  # 687_b49_a49_d49_i49
688 12.011  # 688_b13_a13_d13_i13
689 12.011  # 689_b13_a13_d13_i13
690 14.007  # 690_b101_a101_d101_i101
691 14.007  # 691_b56_a56_d56_i56
692 14.007  # 692_b101_a101_d101_i101
693 12.011  # 693_b48_a48_d48_i48
694 14.007  # 694_b18_a18_d18_i18
695 12.011  # 695_b19_a19_d19_i19
696 12.011  # 696_b13_a13_d13_i13
697 12.011  # 697_b13_a13_d13_i13
698 12.011  # 698_b13_a13_d13_i13
699 12.011  # 699_b13_a13_d13_i13
700 1.008  # 700_b46_a46_d46_i46
701 14.007  # 701_b102_a102_d102_i102
702 15.999  # 702_b103_a103_d103_i103
703 12.011  # 703_b13_a13_d13_i13
704 1.008  # 704_b46_a46_d46_i46
705 12.011  # 705_b13_a13_d13_i13
706 12.011  # 706_b13_a13_d13_i13
707 12.011  # 707_b13_a13_d13_i13
708 14.007  # 708_b102_a102_d102_i102
709 12.011  # 709_b48_a48_d48_i48
710 12.011  # 710_b13_a13_d13_i13
711 14.007  # 711_b56_a56_d56_i56
712 15.999  # 712_b4_a4_d4_i4
713 12.011  # 713_b3_a3_d3_i3
714 15.999  # 714_b20_a20_d20_i20
715 12.011  # 715_b13_a13_d13_i13
716 12.011  # 716_b13_a13_d13_i13
717 12.011  # 717_b13_a13_d13_i13
718 1.008  # 718_b46_a46_d46_i46
719 1.008  # 719_b46_a46_d46_i46
720 1.008  # 720_b46_a46_d46_i46
721 15.999  # 721_b20_a20_d20_i20
722 30.974  # 722_b104_a104_d104_i104
723 12.011  # 723_b13_a13_d13_i13
724 12.011  # 724_b13_a13_d13_i13
725 1.008  # 725_b46_a46_d46_i46
726 30.974  # 726_b64_a64_d64_i64
727 18.998  # 727_b1_a1_d1_i1
728 14.007  # 728_b24_a24_d24_i24
729 15.999  # 729_b4_a4_d4_i4
730 14.007  # 730_b44_a44_d44_i44
731 14.007  # 731_b44_a44_d44_i44
732 14.007  # 732_b44_a44_d44_i44
733 12.011  # 733_b13_a13_d13_i13
734 12.011  # 734_b13_a13_d13_i13
735 12.011  # 735_b13_a13_d13_i13
736 12.011  # 736_b13_a13_d13_i13
737 12.011  # 737_b13_a13_d13_i13
738 12.011  # 738_b13_a13_d13_i13
739 1.008  # 739_b45_a45_d45_i45
740 1.008  # 740_b45_a45_d45_i45
741 1.008  # 741_b46_a46_d46_i46
742 12.011  # 742_b13_a13_d13_i13
743 12.011  # 743_b13_a13_d13_i13
744 12.011  # 744_b13_a13_d13_i13
745 12.011  # 745_b13_a13_d13_i13
746 12.011  # 746_b48_a48_d48_i48
747 12.011  # 747_b48_a48_d48_i48
748 12.011  # 748_b48_a48_d48_i48
749 12.011  # 749_b13_a13_d13_i13
750 12.011  # 750_b13_a13_d13_i13
751 12.011  # 751_b13_a13_d13_i13
752 12.011  # 752_b13_a13_d13_i13
753 12.011  # 753_b13_a13_d13_i13
754 12.011  # 754_b13_a13_d13_i13
755 12.011  # 755_b19_a19_d19_i19
756 1.008  # 756_b46_a46_d46_i46
757 12.011  # 757_b19_a19_d19_i19
758 12.011  # 758_b19_a19_d19_i19
759 12.011  # 759_b19_a19_d19_i19
760 1.008  # 760_b46_a46_d46_i46
761 12.011  # 761_b51_a51_d51_i51
762 12.011  # 762_b51_a51_d51_i51
763 12.011  # 763_b51_a51_d51_i51
764 15.999  # 764_b5_a5_d5_i5
765 1.008  # 765_b7_a7_d7_i7
766 14.007  # 766_b105_a105_d105_i105
767 14.007  # 767_b105_a105_d105_i105
768 14.007  # 768_b105_a105_d105_i105
769 12.011  # 769_b19_a19_d19_i19
770 14.007  # 770_b53_a53_d53_i53
771 1.008  # 771_b54_a54_d54_i54
772 12.011  # 772_b13_a13_d13_i13
773 12.011  # 773_b13_a13_d13_i13
774 12.011  # 774_b13_a13_d13_i13
775 12.011  # 775_b13_a13_d13_i13
776 12.011  # 776_b84_a84_d84_i84
777 12.011  # 777_b87_a87_d87_i87
778 12.011  # 778_b86_a86_d86_i86
779 12.011  # 779_b86_a86_d86_i86
780 1.008  # 780_b46_a46_d46_i46
781 12.011  # 781_b13_a13_d13_i13
782 12.011  # 782_b3_a3_d3_i3
783 14.007  # 783_b53_a53_d53_i53
784 15.999  # 784_b52_a52_d52_i52
785 1.008  # 785_b54_a54_d54_i54
786 18.998  # 786_b1_a1_d1_i1
787 12.011  # 787_b13_a13_d13_i13
788 1.008  # 788_b46_a46_d46_i46
789 12.011  # 789_b13_a13_d13_i13
790 12.011  # 790_b13_a13_d13_i13
791 12.011  # 791_b13_a13_d13_i13
792 12.011  # 792_b13_a13_d13_i13
793 12.011  # 793_b13_a13_d13_i13
794 12.011  # 794_b13_a13_d13_i13
795 18.998  # 795_b1_a1_d1_i1
796 12.011  # 796_b13_a13_d13_i13
797 1.008  # 797_b46_a46_d46_i46
798 12.011  # 798_b13_a13_d13_i13
799 12.011  # 799_b13_a13_d13_i13
800 35.453  # 800_b21_a21_d21_i21
801 12.011  # 801_b13_a13_d13_i13
802 1.008  # 802_b46_a46_d46_i46
803 12.011  # 803_b13_a13_d13_i13
804 12.011  # 804_b13_a13_d13_i13
805 79.904  # 805_b65_a65_d65_i65
806 12.011  # 806_b13_a13_d13_i13
807 1.008  # 807_b46_a46_d46_i46
808 12.011  # 808_b13_a13_d13_i13
809 12.011  # 809_b13_a13_d13_i13
810 18.998  # 810_b1_a1_d1_i1
811 35.453  # 811_b21_a21_d21_i21
812 79.904  # 812_b65_a65_d65_i65
813 12.011  # 813_b48_a48_d48_i48
814 15.999  # 814_b20_a20_d20_i20
815 12.011  # 815_b13_a13_d13_i13
816 18.998  # 816_b1_a1_d1_i1
817 14.007  # 817_b24_a24_d24_i24
818 12.011  # 818_b48_a48_d48_i48
819 12.011  # 819_b13_a13_d13_i13
820 12.011  # 820_b3_a3_d3_i3
821 12.011  # 821_b3_a3_d3_i3
822 15.999  # 822_b4_a4_d4_i4
823 14.007  # 823_b24_a24_d24_i24
824 1.008  # 824_b45_a45_d45_i45
825 15.999  # 825_b5_a5_d5_i5
826 1.008  # 826_b7_a7_d7_i7
827 12.011  # 827_b13_a13_d13_i13
828 12.011  # 828_b13_a13_d13_i13
829 12.011  # 829_b86_a86_d86_i86
830 12.011  # 830_b86_a86_d86_i86
831 12.011  # 831_b86_a86_d86_i86
832 12.011  # 832_b86_a86_d86_i86
833 12.011  # 833_b48_a48_d48_i48
834 1e-30  # 834_b106_a106_d106_i106
835 12.011  # 835_b13_a13_d13_i13
836 12.011  # 836_b13_a13_d13_i13
837 12.011  # 837_b13_a13_d13_i13
838 126.905  # 838_b66_a66_d66_i66
839 1.008  # 839_b46_a46_d46_i46
840 14.007  # 840_b24_a24_d24_i24
841 12.011  # 841_b48_a48_d48_i48
842 12.011  # 842_b48_a48_d48_i48
843 14.007  # 843_b24_a24_d24_i24
844 12.011  # 844_b48_a48_d48_i48
845 12.011  # 845_b3_a3_d3_i3
846 15.999  # 846_b4_a4_d4_i4
847 14.007  # 847_b107_a107_d107_i107
848 12.011  # 848_b13_a13_d13_i13
849 12.011  # 849_b13_a13_d13_i13
850 12.011  # 850_b13_a13_d13_i13
851 12.011  # 851_b13_a13_d13_i13
852 1.008  # 852_b46_a46_d46_i46
853 12.011  # 853_b3_a3_d3_i3
854 15.999  # 854_b4_a4_d4_i4
855 1.008  # 855_b46_a46_d46_i46
856 12.011  # 856_b13_a13_d13_i13
857 12.011  # 857_b13_a13_d13_i13
858 12.011  # 858_b13_a13_d13_i13
859 12.011  # 859_b13_a13_d13_i13
860 12.011  # 860_b13_a13_d13_i13
861 12.011  # 861_b13_a13_d13_i13
862 12.011  # 862_b13_a13_d13_i13
863 12.011  # 863_b13_a13_d13_i13
864 12.011  # 864_b13_a13_d13_i13
865 12.011  # 865_b13_a13_d13_i13
866 28.086  # 866_b108_a108_d108_i108
867 28.086  # 867_b108_a108_d108_i108
868 28.086  # 868_b108_a108_d108_i108
869 28.086  # 869_b108_a108_d108_i108
870 1.008  # 870_b45_a45_d45_i45
871 12.011  # 871_b13_a13_d13_i13
872 12.011  # 872_b13_a13_d13_i13
873 12.011  # 873_b13_a13_d13_i13
874 12.011  # 874_b13_a13_d13_i13
875 18.998  # 875_b1_a1_d1_i1
876 35.453  # 876_b21_a21_d21_i21
877 79.904  # 877_b65_a65_d65_i65
878 126.905  # 878_b66_a66_d66_i66
879 6.941  # 879_b68_a68_d68_i68
880 22.99  # 880_b69_a69_d69_i69
881 39.098  # 881_b70_a70_d70_i70
882 85.468  # 882_b71_a71_d71_i71
883 132.905  # 883_b72_a72_d72_i72
884 24.305  # 884_b73_a73_d73_i73
885 40.08  # 885_b74_a74_d74_i74
886 87.62  # 886_b75_a75_d75_i75
887 137.33  # 887_b76_a76_d76_i76
888 12.011  # 888_b13_a13_d13_i13
889 12.011  # 889_b13_a13_d13_i13
890 12.011  # 890_b13_a13_d13_i13
891 12.011  # 891_b13_a13_d13_i13
892 1.008  # 892_b46_a46_d46_i46
893 14.007  # 893_b53_a53_d53_i53
894 12.011  # 894_b48_a48_d48_i48
895 14.007  # 895_b53_a53_d53_i53
896 12.011  # 896_b48_a48_d48_i48
897 12.011  # 897_b109_a109_d109_i109
898 12.011  # 898_b109_a109_d109_i109
899 1.008  # 899_b46_a46_d46_i46