35
Step 0
Ar 7.862567632870003 8.64461407425256 2.93095272902096
Ar 0.16343172209087806 4.5183861309699855 0.25943482843366594
Ar 5.994621547929198 9.81981192203291 6.759548401775031
Ar 2.6478525681442404 4.403280467864462 3.694197110540422
Ar 6.158335686352317 9.255007908204801 9.648838292798933
Ar 1.2673184349840272 4.079046905159767 5.464463513963928
Ar 2.0349127014818817 2.2087326559499885 6.7176103188455025
Ar 3.3445947575711594 8.232491466862779 6.565989457286978
Ar 8.27050142144408 8.484403903712595 7.326663748930169
Ar 4.565640394462297 8.348894397458201 4.502077447383429
Ar 6.180657239535826 4.881530553248504 1.43331882886791
Ar 6.656756390917622 7.128525262527484 7.9538754920186
Ar 0.7351714537589931 5.042943703251121 2.7027476705493636
Ar 6.930700736506424 6.697755361612713 3.379772721596653
Ar 3.9009823302420963 2.9192986287319713 1.0286753802494357
Ar 2.035283435504869 7.929366293752787 0.3358083749890342
Ar 1.7472751304229446 9.826004371546075 9.018370381178034
Ar 4.121888915792642 8.210106124073397 9.985462504208426
Ar 4.130103304565651 3.5282623534304087 6.322742928681785
Ar 8.506769927225363 6.696369895081166 1.345024892013559
Ar 5.160491487807741 4.815531611835011 3.3797946174528875
Ar 1.859213619416663 7.055034280904295 8.660484143926656
Ar 8.083092585243913 9.095052660658617 5.161275825365737
Ar 2.987539084901787 7.590573465674814 2.364507617532605
Ar 0.9296545755212196 2.2047810357142086 0.8193874374617638
Ar 8.479963758295638 1.5936152056116812 0.04267971641055656
Ar 6.776613428743796 3.266641545857673 8.843161116765247
Ar 0.8576312006772806 7.85861138579224 3.336920672478724
Ar 4.313160014425274 9.412023157123173 8.134943467559884
Ar 6.24353838095918 0.0006637548711623253 2.16038676946226
Ar 0.8936614148307189 9.04696872616652 6.908517011292478
Ar 4.997659364973198 2.7204916599495585 4.124573787338329
Ar 8.892018103127446 4.907062534885445 8.556573328295455
Ar 6.319241684186884 2.895807796329181 5.954827412492688
Ar 2.0685675650867523 0.05221979890274593 7.3891470528329055
35
Step 1
Ar 7.862915506274774 8.646141951346026 2.930393273073113
Ar 0.16500625785738102 4.5180807933773695 0.26265479568750644
Ar 5.995414786659347 9.819622287862673 6.759002984594547
Ar 2.6487846748892245 4.402435598599496 3.69287055577416
Ar 6.159073561621143 9.255638162589328 9.64936378192685
Ar 1.2652582920644844 4.08024341145241 5.4644481307745485
Ar 2.034024708587337 2.209700589402133 6.717554443718759
Ar 3.3445701252302213 8.232772115640147 6.5651024364203225
Ar 8.270349825065646 8.484006827248455 7.32571046364622
Ar 4.565672657039638 8.34851670112267 4.502842652593339
Ar 6.180945494807541 4.882260094058794 1.4325739666943003
Ar 6.65593381853164 7.126990639320282 7.9530163661697975
Ar 0.7344048197493562 5.043114949254481 2.7004412188016014
Ar 6.928488638151332 6.696161370315381 3.3810874704935046
Ar 3.9017560479128366 2.9196419540941436 1.0284831611913314
Ar 2.0349318065418944 7.934446592220451 0.34258649400461166
Ar 1.719756553859566 9.808099375099706 9.175329143705893
Ar 4.123005204137957 8.210076537890105 9.98519784410396
Ar 4.128234075534729 3.52790724725646 6.32129729805518
Ar 8.506953671540488 6.697811773505118 1.3449125219982567
Ar 5.15970205892615 4.816268096570445 3.378443015582367
Ar 1.8598549150404198 7.049246865696599 8.652525653553814
Ar 8.082951695231698 9.095350206747014 5.160367345104109
Ar 2.987890694038404 7.59048071918549 2.36697753710516
Ar 0.9299580296958041 2.202892694138939 0.8203158330860033
Ar 8.481078530976326 1.593138436321024 0.042435875054492866
Ar 6.777342963096706 3.266272245193687 8.842580594319713
Ar 0.8576829286156321 7.8572009910931495 3.338274187138679
Ar 4.312198045182938 9.414478811781578 8.135618988946755
Ar 6.243015173627599 0.0017277308858785877 2.16033468174757
Ar 0.8082834622512631 8.974876811806318 6.870566832901874
Ar 4.997850218234538 2.718004802393805 4.123627498849161
Ar 8.892228943513222 4.907570516561308 8.556975393871433
Ar 6.321573570359475 2.89555352617421 5.955257237418635
Ar 2.180320245153293 0.14317957379492696 7.273585321892428
35
Step 2
Ar 7.864052012867047 8.64799603384087 2.9294074161596044
Ar 0.16719346419557327 4.517684746811314 0.2666270524231126
Ar 5.996784358988116 9.819652507748032 6.757925025377865
Ar 2.6505406346400493 4.401474611693318 3.691381878068007
Ar 6.160450418087272 9.25646660180338 9.64997141777598
Ar 1.262712939033151 4.081608723921681 5.464746965328682
Ar 2.033018773626625 2.2115765192840233 6.717360231311032
Ar 3.344237297609466 8.23217652792593 6.563609659383882
Ar 8.270901825574407 8.483956590077169 7.325149349097038
Ar 4.5658652380031866 8.348163067060813 4.503386906988282
Ar 6.181651351809571 4.882991560475715 1.4309783024192246
Ar 6.654441226325762 7.1248416150921114 7.952398826698888
Ar 0.7330785304121519 5.043487023278135 2.697933132082512
Ar 6.925925971610728 6.69388824815412 3.382695065622465
Ar 3.902529102715744 2.919976944535808 1.0282822957666837
Ar 2.033608446182032 7.941439381729745 0.3544787992320701
Ar 1.691287783799392 9.790303803020883 9.335413269282187
Ar 4.125019929172295 8.209562980110192 9.985448503538978
Ar 4.125998076092858 3.527820051683598 6.320061826311088
Ar 8.507226333377735 6.699204627367625 1.3446510080884349
Ar 5.158576520776453 4.817638368385463 3.3776498951724814
Ar 1.8599498587310461 7.04073531753659 8.639542147704592
Ar 8.082847210381289 9.095926880620617 5.1593452062114915
Ar 2.988800538809326 7.5902268773611405 2.3698774433305116
Ar 0.9303743542455266 2.2008739581024273 0.8213100405680769
Ar 8.482163880104054 1.592600812257159 0.042198298461878225
Ar 6.7779857204150336 3.2659059955183567 8.841986596821922
Ar 0.8574063959440903 7.8558537320362305 3.3397927204397417
Ar 4.31112021016876 9.41770390900763 8.136722606239813
Ar 6.241993624897405 0.003238378830313018 2.160127365916563
Ar 0.7159907710303987 8.896945393789034 6.830488589348015
Ar 4.99769604375992 2.7146839821823794 4.122288800716029
Ar 8.891810100146655 4.908320014078008 8.55645689680605
Ar 6.324724793082442 2.895218063335764 5.956098755853755
Ar 2.299448263384439 0.23976715134442958 7.1569627054530605
35
Step 3
Ar 7.865962452508494 8.650152879571301 2.927997511902436
Ar 0.1699707645199971 4.517203340795761 0.27131883107592997
Ar 5.998719909332495 9.819898697999456 6.756323051975037
Ar 2.6530996510573415 4.400398424399291 3.6897353743101386
Ar 6.162464220588046 9.257492927627526 9.650658460183394
Ar 1.2596894233954306 4.083145686529191 5.465349347649166
Ar 2.0316486112212004 2.215575964475074 6.716814870631997
Ar 3.3435744081370844 8.230692235365241 6.561546317801392
Ar 8.272090536379414 8.48423701490212 7.324995866920264
Ar 4.566219794186705 8.347833811283955 4.503708569479404
Ar 6.182771275314472 4.88372436278967 1.4285395833526406
Ar 6.652289652012987 7.122088023375102 7.952018419462687
Ar 0.7312053767816739 5.0440569415715295 2.6952341524226133
Ar 6.923027489071282 6.690964003805467 3.384588718026142
Ar 3.903301461733965 2.920303583187056 1.0280727377616132
Ar 2.031340803946374 7.949379412932971 0.3707990023402573
Ar 1.6624541468371414 9.773610010340613 9.495355339491944
Ar 4.127899552619804 8.208555732781521 9.986208215392155
Ar 4.123409710333408 3.5279974453567386 6.319031904602359
Ar 8.50758678439381 6.7005484575628 1.3442417101036253
Ar 5.157116725841875 4.8196246039412545 3.3774139781615555
Ar 1.8596030568974198 7.029974332282563 8.622436746830296
Ar 8.082777001921027 9.096782249926706 5.15821162223535
Ar 2.99027900438319 7.589806423747281 2.373226131715732
Ar 0.9309021144354113 2.198730197255646 0.8223724275346951
Ar 8.483219395490803 1.5920025064846766 0.04196680942507933
Ar 6.778541807465413 3.265542622763398 8.841379351290822
Ar 0.8568021490936581 7.8545693551478895 3.3414758079731
Ar 4.309944962291213 9.421664007934952 8.138275213410344
Ar 6.240476436908454 0.005192809726500066 2.159767017709879
Ar 0.6224915163467641 8.81797450660679 6.790081976899248
Ar 4.997206122537126 2.710547186151899 4.1205642070602195
Ar 8.890783442484851 4.909304566812667 8.555046592053888
Ar 6.328674906970551 2.894804860894248 5.957342730935825
Ar 2.419867332561116 0.3355318136711472 7.040656401878769
35
Step 4
Ar 7.86862749010369 8.652586145071549 2.926166354658708
Ar 0.1733083072035167 4.516644129806198 0.27668692867933337
Ar 6.001207319580507 9.820355781800323 6.754208668899009
Ar 2.6564343715685315 4.399208589151502 3.6879360229219667
Ar 6.1651120788135865 9.25871666704206 9.651421547447319
Ar 1.256195572876304 4.0848603358376065 5.466239939245653
Ar 2.029321305152064 2.2237082312246677 6.715699260303011
Ar 3.3425514004443446 8.228341386417275 6.558961963787968
Ar 8.273804852397005 8.484825563655141 7.325277729932561
Ar 4.566738161891854 8.347529407004185 4.503806134458493
Ar 6.184297740415616 4.884457420728291 1.425273136401936
Ar 6.649495605032338 7.118744502251031 7.951868303135395
Ar 0.7288021365212771 5.044820597390935 2.6923581113330335
Ar 6.919810989473556 6.687422444613546 3.38676024310339
Ar 3.9040731092876735 2.9206218679129763 1.0278544418049593
Ar 2.02825024870917 7.956966892454962 0.39090559509152983
Ar 1.6331752147851613 9.758911811819946 9.654423657277441
Ar 4.131593148279191 8.207043930954532 9.987468885642414
Ar 4.120487106253667 3.528435754738799 6.318201641735436
Ar 8.50803368477928 6.701843264350621 1.3436862043220736
Ar 5.155328490299143 4.822205648975819 3.377728076947238
Ar 1.8589192925317934 7.01745781329012 8.602138918431221
Ar 8.082737609466717 9.097915341552614 5.1569691160518945
Ar 2.9923409535275134 7.589211398382559 2.3770528927826176
Ar 0.9315393869028568 2.1964685866789018 0.823505774676894
Ar 8.484244699823892 1.5913437431038455 0.0417412286003788
Ar 6.77901132259235 3.2651818840837787 8.840759146645155
Ar 0.8558720674505027 7.853347441522196 3.3433223496542954
Ar 4.308672115938633 9.426323051119027 8.14028654963891
Ar 6.238468733698731 0.007585847719825702 2.159257305705954
Ar 0.5289150160224925 8.738830932354995 6.749567017479367
Ar 4.9963922553243485 2.7056163959738764 4.118462846813574
Ar 8.889177968201388 4.910515534055987 8.552782755979859
Ar 6.333398474938407 2.894317850748716 5.958976713742364
Ar 2.5410737697128973 0.42754480621159224 6.924999536668646
35
Step 5
Ar 7.8720237093129075 8.655267595590937 2.9239170617310553
Ar 0.17717040097013945 4.5160163956160195 0.2826795592706339
Ar 6.004229019000645 9.8210175636024 6.751596351353362
Ar 2.66051158209539 4.39790720610157 3.6859894044065245
Ar 6.168390157847146 9.260137116706987 9.652256754231477
Ar 1.2522385313178914 4.086764655300733 5.467397015101685
Ar 2.024956390843133 2.2385221729805886 6.713971626770016
Ar 3.341138645918983 8.225175666348898 6.5559127292972885
Ar 8.275865881039852 8.485695187399893 7.326044347730442
Ar 4.567422312833532 8.347250476994402 4.50367827551926
Ar 6.186219516407446 4.885189226894615 1.4212013016325884
Ar 6.646080211087281 7.1148296931402495 7.95193964654811
Ar 0.7258891010765143 5.045772944511976 2.6893217077488125
Ar 6.916296831212702 6.683302072439346 3.389200298657797
Ar 3.904844046496678 2.9209318109784737 1.027627363042959
Ar 2.02459811290119 7.962562001326607 0.4143021752280828
Ar 1.6031705623658845 9.747439035853594 9.812181052984476
Ar 4.136035017890997 8.205017169605338 9.989221388083594
Ar 4.117252326052627 3.5291313899398524 6.317563904217164
Ar 8.50856550280231 6.703089037366859 1.3429862551224758
Ar 5.153221366317998 4.825357482240143 3.378579419382142
Ar 1.8579877773799696 7.0036244198792446 8.579466138526074
Ar 8.082723731475317 9.09932487309151 5.15562012437519
Ar 2.9950059765999777 7.588431557881219 2.3813975566760526
Ar 0.9322836977547243 2.194098602019222 0.8247131137222268
Ar 8.485239452999943 1.5906247954931472 0.04152137312139334
Ar 6.779394358597493 3.2648234713730813 8.840126332335899
Ar 0.8546193409409213 7.852187411780228 3.3453306289394176
Ar 4.307281185241469 9.431649309054645 8.142750029889624
Ar 6.23597798384603 0.010410133738781796 2.1586033313469484
Ar 0.43564218295257573 8.659695249373163 6.708938490110843
Ar 4.995268422179932 2.699917095664511 4.115996175539882
Ar 8.887028365377677 4.9119425312778455 8.549711280011628
Ar 6.338865772315936 2.893761333741402 5.96098543633239
Ar 2.663974526546782 0.513044314692516 6.810027351012481
35
Step 6
Ar 7.876124228675649 8.658168109171363 2.921252976076521
Ar 0.18151708207455597 4.515330623226826 0.2892383830115461
Ar 6.007764380680174 9.82187694485086 6.748503208064543
Ar 2.6652930023607597 4.396496816448556 3.6839016144450523
Ar 6.172293531138239 9.261753273891742 9.65315963378198
Ar 1.2478226708014908 4.088880710957385 5.468789709705609
Ar 2.0172525228751064 2.2618936884123113 6.711968885030231
Ar 3.3393143224303525 8.22126347642839 6.552454864058271
Ar 8.277990325997218 8.48681919552634 7.327383621050413
Ar 4.568274317165927 8.346997772905913 4.503324054012945
Ar 6.1885220800037475 4.885917930530469 1.4163526239679514
Ar 6.642067920454605 7.110365195831805 7.952222136651473
Ar 0.7224895316390767 5.046908207277617 2.6861442467881944
Ar 6.912507428339677 6.678644939174035 3.391898633624053
Ar 3.9056142906777596 2.9212334385522185 1.0273914566790239
Ar 2.0207896983790445 7.96428131411697 0.440580237777216
Ar 1.5720263995789978 9.740739571510723 9.96831098843889
Ar 4.1411486650641125 8.20246720273945 9.9914559887525
Ar 4.113731529263275 3.530081262764081 6.317110381284503
Ar 8.509180535852263 6.704285745362468 1.3421437844844435
Ar 5.150808288989546 4.829053558019706 3.3799501957899447
Ar 1.8568767923478804 6.988826999805884 8.555069966528793
Ar 8.082727517177705 9.101009631850284 5.154166462987235
Ar 2.9982993499124335 7.5874544832633655 2.3863118165043145
Ar 0.9331319570650164 2.1916326194247637 0.8259975072535666
Ar 8.486203355519413 1.589845984740286 0.0413070559258676
Ar 6.77969100631869 3.2644670154423086 8.839481316671367
Ar 0.8530484265685679 7.851088531929446 3.347498351856304
Ar 4.305737481749185 9.437617791662689 8.145642209133499
Ar 6.233013873264031 0.013656276394840558 2.1578115290513513
Ar 0.3429950765700492 8.58061036221773 6.668123722179351
Ar 4.993850402606396 2.693477746325303 4.113177627138485
Ar 8.884373443885716 4.913573907966474 8.54588358481009
Ar 6.3450435682812545 2.893139866865284 5.963351266009338
Ar 2.789886996292083 0.5900508044121113 6.695394960475128
35
Step 7
Ar 7.880899347874067 8.6612586120668 2.9181775956765112
Ar 0.18630567568882628 4.514597974875125 0.2963005287182209
Ar 6.011790228528534 9.82292601071363 6.744948709693483
Ar 2.6707361401170404 4.394980282203789 3.681679168745569
Ar 6.176815996498801 9.26356375974437 9.65412524997697
Ar 1.242947182294141 4.091245496285131 5.470374595040937
Ar 2.0055033163954965 2.293555316162466 6.710300074096703
Ar 3.337067330013679 8.216678484294857 6.548641552569455
Ar 8.279739136209836 8.488182304580777 7.329449739212977
Ar 4.569296309618493 8.346772146408966 4.502742967852397
Ar 6.191188125610036 4.886641434203462 1.410760865999777
Ar 6.637485139200081 7.105374290053854 7.952704581485224
Ar 0.7186290752539525 5.048220105636175 2.682847357688188
Ar 6.908466759135869 6.6734955301388785 3.3948443338109144
Ar 3.9063838746439075 2.92152679012708 1.0271466774014624
Ar 2.0172887142274605 7.960363459539133 0.4692455449385223
Ar 1.539285264048734 9.740320257002688 0.12274213995914884
Ar 4.146851748360435 8.199389442367586 9.994162361150488
Ar 4.109954665619445 3.531283009097275 6.316831749283468
Ar 8.509876932345469 6.705433326038102 1.34116084028194
Ar 5.148105128262786 4.8332652793555875 3.3818182768622878
Ar 1.8556349098678786 6.97333176036876 8.529438004600895
Ar 8.082737645777268 9.102969066782777 5.152608659453969
Ar 3.0022537838314203 7.586265690797416 2.3918619606928746
Ar 0.9340803557355107 2.189086784264722 0.8273618033443431
Ar 8.487136150045444 1.5890076787891658 0.04109808554605697
Ar 6.779901358731144 3.2641120906991015 8.8388245648857
Ar 0.8511649854276216 7.850049918891098 3.349822706213559
Ar 4.304000249128356 9.444209713827865 8.148925699921293
Ar 6.229588134547577 0.017313043848844537 2.1568895386398377
Ar 0.2514151931796025 8.501575852758236 6.626980102072349
Ar 4.992155381643489 2.6863292503486225 4.110022222853089
Ar 8.88125457332371 4.915397224394372 8.541354538912856
Ar 6.35189594514959 2.8924581538486924 5.966054693313496
Ar 2.919577243664294 0.6587314594845964 6.580507509105036
35
Step 8
Ar 7.886317169169292 8.664510898079866 2.9146945324806195
Ar 0.19149223917729127 4.513829799459099 0.3038004600564869
Ar 6.0162814635471324 9.824156148058105 6.7409543933976055
Ar 2.6767951635589697 4.39336065778485 3.679328899833273
Ar 6.181949883326639 9.265566742510877 9.655148208651894
Ar 1.2376039934051302 4.093914969411112 5.472092580012925
Ar 1.990113087776114 2.3312445623287887 6.709434569211576
Ar 3.3343965401702325 8.211494230694935 6.544522012317921
Ar 8.280458326263542 8.489802407153633 7.332503852935478
Ar 4.570490466917458 8.346574508855756 4.501935041280451
Ar 6.194198135397335 4.887357495465988 1.4044639137066934
Ar 6.632358566112194 7.099880425227765 7.953375592090694
Ar 0.71433517115719 5.049702084040106 2.6794547080532833
Ar 6.90419991051667 6.667899730418162 3.398026053455477
Ar 3.9071528459457467 2.9218119178409676 1.0268929786633503
Ar 2.0144324847827315 7.949783306204924 0.4995758002335664
Ar 1.504622390871164 9.7470184654786 0.2757518733043397
Ar 4.153061208632387 8.195783909472762 9.997329342432899
Ar 4.105954427696476 3.532735084023114 6.316717993654507
Ar 8.510652713991469 6.706531676372961 1.3400395642311367
Ar 5.145130181212693 4.837962419379709 3.384158041576709
Ar 1.8542949642741005 6.9573313988485905 8.502921276480068
Ar 8.08273822985706 9.105204162182222 5.150945211387616
Ar 3.0069116017899566 7.584848937414374 2.398132247532252
Ar 0.9351241928125087 2.186482371904769 0.8288083412298598
Ar 8.488037621097837 1.5881102923456252 0.0408942658751637
Ar 6.780025515338396 3.2637582201569857 8.83815659697344
Ar 0.8489758041086848 7.8490705429785255 3.3523004362532425
Ar 4.30202839649493 9.451411288275555 8.152552371907609
Ar 6.225714338870598 0.021367588612974806 2.155846055026628
Ar 0.16155279953875298 8.422549193196879 6.585258587892214
Ar 4.990201571461055 2.678504432457171 4.106546147673905
Ar 8.877714239626286 4.917399692455046 8.536180532600305
Ar 6.359385118349006 2.891720945562787 5.9690748273764695
Ar 3.0527112367529643 0.721230495346411 6.464937690210342
35
Step 9
Ar 7.892344273471155 8.667898301074858 2.910807499113657
Ar 0.19703280966557613 4.513037204714948 0.31167158208885076
Ar 6.021211777250913 9.825558134959435 6.736543570951863
Ar 2.683421754028891 4.391641059101008 3.6768578472650595
Ar 6.187685876491544 9.267759869130641 9.656222695737371
Ar 1.2317763954419756 4.096966361855746 5.473866759527531
Ar 1.9721608610391759 2.372293723285038 6.709506316500463
Ar 3.331308986354236 8.205782316328422 6.540141194431154
Ar 8.27924083395609 8.491766275686697 7.336960281788236
Ar 4.57185899434148 8.346405782563806 4.500900908968559
Ar 6.197530971434137 4.88806382604972 1.3975026471308374
Ar 6.626713315311469 7.093905482435997 7.954224320248395
Ar 0.7096364738665187 5.051347534348741 2.6759917288857693
Ar 6.8997326750681625 6.661903913137985 3.4014322244005504
Ar 3.9079212660564338 2.922088885605871 1.0266303118046247
Ar 2.0122573056861275 7.932692079780407 0.5306765169599675
Ar 1.4680111972372092 9.760542622724484 0.4278736697772598
Ar 4.159697478504275 8.191655378444358 0.0009446714635039655
Ar 4.1017648320337585 3.534436982889307 6.316758860291884
Ar 8.51150579803653 6.707580643813434 1.3387821602768157
Ar 5.141903640646995 4.843113528292149 3.386941252541331
Ar 1.8528784177073228 6.940961974569946 8.475767638487849
Ar 8.08270769716831 9.107718631190998 5.149171888885165
Ar 3.01232640055708 7.5831870203918434 2.4052270438800183
Ar 0.9362576690557881 2.1838476673363174 0.8303384402547062
Ar 8.488907594738235 1.5871542864782646 0.040695395573290605
Ar 6.780063586647787 3.263404880639923 8.837477985318086
Ar 0.8464887065960526 7.8481492218422995 3.354927924998177
Ar 4.2997841936605266 9.45921252227621 8.156466053567328
Ar 6.221407658088662 0.025805696011807114 2.1546906609542353
Ar 0.07431511757082661 8.343415922221482 6.5425581264953685
Ar 4.988007887291514 2.670037577599805 4.1027662857120815
Ar 8.873794797827655 4.9195685564166975 8.530417811557536
Ar 6.367472225586193 2.8909329572339377 5.972389875632405
Ar 3.188282531581391 0.7800741795674139 6.348622848530066
35
Step 10
Ar 7.89894627988295 8.671396205212572 2.9065203163771365
Ar 0.20288441443375052 4.512230708824442 0.31984753342514416
Ar 6.0265543779771535 9.827122191932121 6.731741074129434
Ar 2.690565905941058 4.389824535637881 3.674273144285066
Ar 6.194012875709343 9.27014021265697 9.657342527976931
Ar 1.225438182199747 4.100499210735681 5.475601068806226
Ar 1.952713599579781 2.414723242617665 6.710456017966419
Ar 3.3278182257251236 8.199610456544692 6.53553960800466
Ar 8.27497392310493 8.49427221848782 7.343408204532457
Ar 4.573404116768621 8.346266852708995 4.499641904772813
Ar 6.201164455264891 4.888758182038359 1.3899198537059407
Ar 6.620570897532255 7.087467852180824 7.955241206663993
Ar 0.7045623143479459 5.053150004668208 2.672485361174402
Ar 6.895091210803513 6.6555541726344805 3.405051237767027
Ar 3.9086892094647547 2.922357767949799 1.0263586250670111
Ar 2.010488374919099 7.910242946038365 0.5617010982815194
Ar 1.4297277215263624 9.77962838898394 0.5796488240854756
Ar 4.166686979947164 8.187012769991211 0.004994878047739394
Ar 4.097419983871907 3.5363900775235755 6.316944393591896
Ar 8.512434019089039 6.708580018541149 1.3373908641308927
Ar 5.1384470901104455 4.848686321775253 3.3901379221400054
Ar 1.8513990359021069 6.924318467044551 8.448151740616897
Ar 8.082617863675177 9.110520369497445 5.147281575089442
Ar 3.018562996404068 7.581263274082944 2.41326951329856
Ar 0.9374738036787844 2.1812198595109775 0.8319513925214764
Ar 8.489745941430968 1.5861401660754113 0.04050126751007159
Ar 6.780015698594658 3.2630515080664457 8.836789352163771
Ar 0.843712462419345 7.847284596249782 3.357701280611272
Ar 4.297236587148509 9.467605153750803 8.160606294417265
Ar 6.216684606001644 0.03061204626195511 2.1534336490897883
Ar 9.99082398532332 8.263948691421406 6.498303585324274
Ar 4.985593739535069 2.660964098552434 4.098699663972826
Ar 8.869537462450824 4.921891400585267 8.524121126607174
Ar 6.376118063339607 2.8900988101599308 5.975977589861165
Ar 3.3252955958960833 0.837078221056643 6.231721303983828
35
Step 11
Ar 7.906088376659184 8.674982395943623 2.9018369409716605
Ar 0.20900583423492072 4.511419978332204 0.32826315207803874
Ar 6.032282620295098 9.828837997568979 6.7265730654553675
Ar 2.6981766476871365 4.38791394964745 3.671581905579303
Ar 6.200917903388316 9.27270424037984 9.65850122227938
Ar 1.2185530255618058 4.104635792905529 5.47717907160816
Ar 1.9325293871026654 2.4573489266962145 6.7122110499551315
Ar 3.3239427002024593 8.193040005249578 6.530753485754728
Ar 8.266553968045715 8.497648922093596 7.352549565224237
Ar 4.575128070791588 8.346158534043413 4.498160165858994
Ar 6.205075907307511 4.88943844114988 1.381759186758855
Ar 6.613947260687311 7.080580480482667 7.95641864579107
Ar 0.6991422145072392 5.055103387949123 2.668963830560414
Ar 6.89030176761613 6.648895710853117 3.40887159581455
Ar 3.9094567620319665 2.9226187599948164 1.026077862429934
Ar 2.008689313342502 7.883973115574681 0.5920209900803016
Ar 1.3902000079120562 9.802642288635116 0.731440698775778
Ar 4.173962985986658 8.181868179394332 0.009465324117125808
Ar 4.092953111968186 3.5385987617041588 6.317265587029936
Ar 8.513435150330785 6.709529527140201 1.3358679194355298
Ar 5.134782984410794 4.854648045134796 3.3937171210650696
Ar 1.8498655519268214 6.907467095156548 8.420198084244367
Ar 8.082434148206003 9.113622910362944 5.145264824292678
Ar 3.0256949219150933 7.579063650037309 2.4223957101356435
Ar 0.9387647146869782 2.1786458305261127 0.8336427948642576
Ar 8.49055258423387 1.5850684739319176 0.04031166947560953
Ar 6.779881996820385 3.2626975026906258 8.836091366979431
Ar 0.8406566938817313 7.846475073771884 3.3606164328946524
Ar 4.294363742293758 9.47657981835812 8.164913436943962
Ar 6.211562768139666 0.03577048032804093 2.1520858397802662
Ar 9.912203977020493 8.183789126050328 6.4518066341797535
Ar 4.98297906259703 2.6513204917080855 4.0943626542965275
Ar 8.864981545503019 4.924356380692911 8.517342713565887
Ar 6.385283761810482 2.8892230073372964 5.979815666831618
Ar 3.4630605308946407 0.8932437181745663 6.114428784891784
35
Step 12
Ar 7.913735790568988 8.678637263421914 2.8967615086348983
Ar 0.2153581335748486 4.510613650974349 0.33685513591513944
Ar 6.038370395585722 9.83069469253269 6.721066921200044
Ar 2.7062026657475995 4.385911864869777 3.668791121123375
Ar 6.208386068578021 9.275447804609612 9.659692088480478
Ar 1.211074137020302 4.109520909470189 5.4784631523542915
Ar 1.912075807133933 2.4995054519779343 6.71476275480014
Ar 3.3197039578444167 8.186124291063988 6.5258152663746705
Ar 8.253268511664773 8.502300498403585 7.365005356627121
Ar 4.5770330968724995 8.346081571621896 4.496458762093383
Ar 6.209242625967411 4.890102665070432 1.373064279717632
Ar 6.6068512915744035 7.073249223208483 7.957751406382475
Ar 0.6934054640909807 5.057202085921393 2.6654564522350808
Ar 6.885390479466505 6.641972373690192 3.412882033945921
Ar 3.9102240198136644 2.9228719533697376 1.0257879626605275
Ar 2.006426328947367 7.8552683357161985 0.6212416317758203
Ar 1.349846419599331 9.82810896459641 0.8834145999868077
Ar 4.181465566515438 8.176235965628527 0.014340301737096101
Ar 4.088395618756163 3.5410714259587532 6.317715175609117
Ar 8.514506922689606 6.710428826836963 1.3342155412601466
Ar 5.13093423463157 4.860965811840393 3.3976476964569597
Ar 1.8482834092290996 6.890454205354287 8.391997123409455
Ar 8.082116861859616 9.117046421373177 5.143111684698501
Ar 3.0337995020231605 7.576578984571571 2.4327445306124718
Ar 0.9401224558826078 2.176180430399751 0.8354024666181791
Ar 8.491327511667764 1.5839397818993874 0.040126387527317536
Ar 6.779662652194819 3.2623422655176366 8.83538474262873
Ar 0.8373317827254876 7.845718722556613 3.363669253795265
Ar 4.291153762995908 9.486123624106062 8.169333401207329
Ar 6.206060529415995 0.041264260361668324 2.150658400406177
Ar 9.839201223034353 8.102503277972444 6.402457316840771
Ar 4.9801848641101305 2.6411449675542054 4.089769533519262
Ar 8.860163928363537 4.9269523832612565 8.510131585534735
Ar 6.394931405324477 2.888309961565318 5.983882099678942
Ar 3.6011745745295003 0.9490360827232082 5.99689732415174
35
Step 13
Ar 7.921854190545997 8.682343878764343 2.891298392382578
Ar 0.22190498765702146 4.509819235311041 0.3455624401645703
Ar 6.044792127024905 9.832680931164626 6.715251147029822
Ar 2.7145928224075284 4.383820445874208 3.665907560846008
Ar 6.216400589633787 9.278366155777888 9.66090834565371
Ar 1.2029445773949212 4.115320243895785 5.479294580097331
Ar 1.8916348892564865 2.5407928446817265 6.718173261528537
Ar 3.3151249930313518 8.178908434592046 6.520754116285642
Ar 8.235139688177036 8.50856590794361 7.381054075260612
Ar 4.579121434954091 8.346036697361084 4.494541857459526
Ar 6.213642293343202 4.890749144915107 1.36387799045583
Ar 6.599284332608068 7.065472022141621 7.959236614379456
Ar 0.6873807634995949 5.0594411455311 2.6619934641212573
Ar 6.880383217956297 6.634826325630427 3.417071628593671
Ar 3.9109910884908636 2.9231174443283177 1.0254889677528432
Ar 2.0033552180595477 7.82514486815943 0.6491335586523427
Ar 1.3089932563217908 9.854927019485075 1.0356103384740158
Ar 4.1891412839710025 8.170132107285996 0.019603121926128193
Ar 4.083775926204159 3.5438205533454665 6.318288475042601
Ar 8.515647037579932 6.711277501337465 1.332435898014345
Ar 5.126923843749597 4.867606915543899 3.4018989121197327
Ar 1.846655835834887 6.873312364096082 8.36361588380762
Ar 8.081624273874278 9.12081767080928 5.140814648934759
Ar 3.042951052774073 7.573806979207418 2.4444449680003117
Ar 0.9415404024609958 2.173881178790049 0.837212758154425
Ar 8.492070764386996 1.5827546805547088 0.039945210292582696
Ar 6.779357863140891 3.2619851412758827 8.83467023359562
Ar 0.8337487754722551 7.845013092168908 3.3668557196237376
Ar 4.2876036091809135 9.496219001775488 8.173820699275703
Ar 6.200196808370064 0.047076316707828705 2.1491626714952847
Ar 9.77183785385378 8.01972290224115 6.349982811021479
Ar 4.977234894846453 2.6304797729881546 4.084929340650529
Ar 8.855118738806897 4.929669121842703 8.502533099735958
Ar 6.40502463156856 2.887364079240771 5.988155486943358
Ar 3.7394179335617728 1.004638875231326 5.879226722228069
35
Step 14
Ar 7.930410024340767 8.686087967970154 2.885452278203852
Ar 0.22861284398514703 4.5090430737333556 0.35432646582637545
Ar 6.051522236864862 9.834785089761796 6.709155213447312
Ar 2.723296564577509 4.381641368243359 3.662937694092207
Ar 6.22494287831749 9.281453976178124 9.662143256876881
Ar 1.1940987147006914 4.122216141069596 5.479495581424997
Ar 1.8713894173906815 2.580929850991745 6.722559152336334
Ar 3.3102289899990627 8.1714303080438 6.515596284391889
Ar 8.212934310209894 8.516579515543434 7.400494488975991
Ar 4.581395334142502 8.34602476021546 4.4924149029643825
Ar 6.218253328781561 4.891376430918959 1.354241812737539
Ar 6.59124112175149 7.057239354355503 7.960873196085927
Ar 0.6810959314270488 5.061816366387203 2.6586058828091295
Ar 6.875305499731563 6.627497845729949 3.4214298372205882
Ar 3.911758082687225 2.9233553292499717 1.0251808089954038
Ar 1.9992390428459146 7.794259647617058 0.675565062654828
Ar 1.2678628533004694 9.882362709100974 1.1880162249420978
Ar 4.196942925813712 8.163573816972892 0.02523619105076207
Ar 4.079118161061341 3.546861204841897 6.318983959258197
Ar 8.516853192451768 6.7120750574774375 1.330531090509146
Ar 5.1227746131549585 4.8745391187045986 3.406440869315184
Ar 1.8449844954434897 6.856064464639172 8.335104900985357
Ar 8.080917083674128 9.124968516776086 5.138372003915808
Ar 3.0532130281500267 7.570753473042574 2.4576025337692258
Ar 0.9430148720059198 2.171799496871445 0.8390484347771865
Ar 8.492782505408698 1.5815137707691242 0.039767940321893964